 Entering Gaussian System, Link 0=g09
 Input=sol.com
 Output=sol.log
 Initial command:
 /apps/applications/gaussian/G09.D01/2/default/g09/l1.exe "/local/3135743.1.24core-128G.q/Gau-1352.inp" -scrdir="/local/3135743.1.24core-128G.q/"
 Entering Link 1 = /apps/applications/gaussian/G09.D01/2/default/g09/l1.exe PID=      1353.
  
 Copyright (c) 1988,1990,1992,1993,1995,1998,2003,2009,2013,
            Gaussian, Inc.  All Rights Reserved.
  
 This is part of the Gaussian(R) 09 program.  It is based on
 the Gaussian(R) 03 system (copyright 2003, Gaussian, Inc.),
 the Gaussian(R) 98 system (copyright 1998, Gaussian, Inc.),
 the Gaussian(R) 94 system (copyright 1995, Gaussian, Inc.),
 the Gaussian 92(TM) system (copyright 1992, Gaussian, Inc.),
 the Gaussian 90(TM) system (copyright 1990, Gaussian, Inc.),
 the Gaussian 88(TM) system (copyright 1988, Gaussian, Inc.),
 the Gaussian 86(TM) system (copyright 1986, Carnegie Mellon
 University), and the Gaussian 82(TM) system (copyright 1983,
 Carnegie Mellon University). Gaussian is a federally registered
 trademark of Gaussian, Inc.
  
 This software contains proprietary and confidential information,
 including trade secrets, belonging to Gaussian, Inc.
  
 This software is provided under written license and may be
 used, copied, transmitted, or stored only in accord with that
 written license.
  
 The following legend is applicable only to US Government
 contracts under FAR:
  
                    RESTRICTED RIGHTS LEGEND
  
 Use, reproduction and disclosure by the US Government is
 subject to restrictions as set forth in subparagraphs (a)
 and (c) of the Commercial Computer Software - Restricted
 Rights clause in FAR 52.227-19.
  
 Gaussian, Inc.
 340 Quinnipiac St., Bldg. 40, Wallingford CT 06492
  
  
 ---------------------------------------------------------------
 Warning -- This program may not be used in any manner that
 competes with the business of Gaussian, Inc. or will provide
 assistance to any competitor of Gaussian, Inc.  The licensee
 of this program is prohibited from giving any competitor of
 Gaussian, Inc. access to this program.  By using this program,
 the user acknowledges that Gaussian, Inc. is engaged in the
 business of creating and licensing software in the field of
 computational chemistry and represents and warrants to the
 licensee that it is not a competitor of Gaussian, Inc. and that
 it will not use this program in any manner prohibited above.
 ---------------------------------------------------------------
  

 Cite this work as:
 Gaussian 09, Revision D.01,
 M. J. Frisch, G. W. Trucks, H. B. Schlegel, G. E. Scuseria, 
 M. A. Robb, J. R. Cheeseman, G. Scalmani, V. Barone, B. Mennucci, 
 G. A. Petersson, H. Nakatsuji, M. Caricato, X. Li, H. P. Hratchian, 
 A. F. Izmaylov, J. Bloino, G. Zheng, J. L. Sonnenberg, M. Hada, 
 M. Ehara, K. Toyota, R. Fukuda, J. Hasegawa, M. Ishida, T. Nakajima, 
 Y. Honda, O. Kitao, H. Nakai, T. Vreven, J. A. Montgomery, Jr., 
 J. E. Peralta, F. Ogliaro, M. Bearpark, J. J. Heyd, E. Brothers, 
 K. N. Kudin, V. N. Staroverov, T. Keith, R. Kobayashi, J. Normand, 
 K. Raghavachari, A. Rendell, J. C. Burant, S. S. Iyengar, J. Tomasi, 
 M. Cossi, N. Rega, J. M. Millam, M. Klene, J. E. Knox, J. B. Cross, 
 V. Bakken, C. Adamo, J. Jaramillo, R. Gomperts, R. E. Stratmann, 
 O. Yazyev, A. J. Austin, R. Cammi, C. Pomelli, J. W. Ochterski, 
 R. L. Martin, K. Morokuma, V. G. Zakrzewski, G. A. Voth, 
 P. Salvador, J. J. Dannenberg, S. Dapprich, A. D. Daniels, 
 O. Farkas, J. B. Foresman, J. V. Ortiz, J. Cioslowski, 
 and D. J. Fox, Gaussian, Inc., Wallingford CT, 2013.
 
 ******************************************
 Gaussian 09:  ES64L-G09RevD.01 24-Apr-2013
                 6-Dec-2020 
 ******************************************
 %nprocshared=4
 Will use up to    4 processors via shared memory.
 %mem=100MW
 %NoSave
 %chk=sol.chk
 -------------------------------------------------------------
 #b3lyp/6-31+G(d) opt freq volume pop=nbo SCRF=(solvent=Water)
 -------------------------------------------------------------
 1/14=-1,18=20,19=15,26=3,38=1/1,3;
 2/9=110,12=2,17=6,18=5,40=1/2;
 3/5=1,6=6,7=11,11=2,16=1,25=1,30=1,70=2201,71=1,72=1,74=-5/1,2,3;
 4//1;
 5/5=2,38=5,53=1/2;
 6/7=2,8=2,9=2,10=2,28=1,40=1,44=1/1,4,7;
 7//1,2,3,16;
 1/14=-1,18=20,19=15,26=3/3(2);
 2/9=110/2;
 99//99;
 2/9=110/2;
 3/5=1,6=6,7=11,11=2,16=1,25=1,30=1,70=2205,71=1,72=1,74=-5/1,2,3;
 4/5=5,16=3,69=1/1;
 5/5=2,38=5,53=1/2;
 7//1,2,3,16;
 1/14=-1,18=20,19=15,26=3/3(-5);
 2/9=110/2;
 6/7=2,8=2,9=2,10=2,19=2,28=1,40=1,44=1/1,4,7;
 99/9=1/99;
 -------
 sol opt
 -------
 Symbolic Z-matrix:
 Charge =  0 Multiplicity = 1
 C                     0.1641   -1.3726   -0.0002 
 C                    -1.1066   -0.8284    0.0001 
 C                    -1.2707    0.5442    0. 
 C                    -0.1641    1.3726    0. 
 C                     1.1066    0.8284    0.0006 
 C                     1.2707   -0.5442   -0.0007 
 H                     0.2923   -2.4449    0.0044 
 H                    -1.9712   -1.4756    0. 
 H                    -2.2635    0.9693   -0.0005 
 H                    -0.2923    2.4449   -0.0008 
 H                     1.9712    1.4756   -0.0001 
 H                     2.2635   -0.9693    0.0002 
 

 GradGradGradGradGradGradGradGradGradGradGradGradGradGradGradGradGradGrad
 Berny optimization.
 Initialization pass.
                           ----------------------------
                           !    Initial Parameters    !
                           ! (Angstroms and Degrees)  !
 --------------------------                            --------------------------
 ! Name  Definition              Value          Derivative Info.                !
 --------------------------------------------------------------------------------
 ! R1    R(1,2)                  1.3823         estimate D2E/DX2                !
 ! R2    R(1,6)                  1.3823         estimate D2E/DX2                !
 ! R3    R(1,7)                  1.0799         estimate D2E/DX2                !
 ! R4    R(2,3)                  1.3824         estimate D2E/DX2                !
 ! R5    R(2,8)                  1.08           estimate D2E/DX2                !
 ! R6    R(3,4)                  1.3823         estimate D2E/DX2                !
 ! R7    R(3,9)                  1.08           estimate D2E/DX2                !
 ! R8    R(4,5)                  1.3823         estimate D2E/DX2                !
 ! R9    R(4,10)                 1.0799         estimate D2E/DX2                !
 ! R10   R(5,6)                  1.3824         estimate D2E/DX2                !
 ! R11   R(5,11)                 1.08           estimate D2E/DX2                !
 ! R12   R(6,12)                 1.08           estimate D2E/DX2                !
 ! A1    A(2,1,6)              119.9976         estimate D2E/DX2                !
 ! A2    A(2,1,7)              120.0012         estimate D2E/DX2                !
 ! A3    A(6,1,7)              120.0006         estimate D2E/DX2                !
 ! A4    A(1,2,3)              120.0015         estimate D2E/DX2                !
 ! A5    A(1,2,8)              119.9993         estimate D2E/DX2                !
 ! A6    A(3,2,8)              119.9993         estimate D2E/DX2                !
 ! A7    A(2,3,4)              120.0009         estimate D2E/DX2                !
 ! A8    A(2,3,9)              119.9974         estimate D2E/DX2                !
 ! A9    A(4,3,9)              120.0017         estimate D2E/DX2                !
 ! A10   A(3,4,5)              119.9976         estimate D2E/DX2                !
 ! A11   A(3,4,10)             120.0008         estimate D2E/DX2                !
 ! A12   A(5,4,10)             120.0016         estimate D2E/DX2                !
 ! A13   A(4,5,6)              120.0014         estimate D2E/DX2                !
 ! A14   A(4,5,11)             119.9992         estimate D2E/DX2                !
 ! A15   A(6,5,11)             119.9992         estimate D2E/DX2                !
 ! A16   A(1,6,5)              120.0009         estimate D2E/DX2                !
 ! A17   A(1,6,12)             120.0017         estimate D2E/DX2                !
 ! A18   A(5,6,12)             119.9973         estimate D2E/DX2                !
 ! D1    D(6,1,2,3)             -0.0048         estimate D2E/DX2                !
 ! D2    D(6,1,2,8)            179.9699         estimate D2E/DX2                !
 ! D3    D(7,1,2,3)            179.723          estimate D2E/DX2                !
 ! D4    D(7,1,2,8)             -0.3023         estimate D2E/DX2                !
 ! D5    D(2,1,6,5)              0.0718         estimate D2E/DX2                !
 ! D6    D(2,1,6,12)           179.9305         estimate D2E/DX2                !
 ! D7    D(7,1,6,5)           -179.656          estimate D2E/DX2                !
 ! D8    D(7,1,6,12)             0.2027         estimate D2E/DX2                !
 ! D9    D(1,2,3,4)             -0.0191         estimate D2E/DX2                !
 ! D10   D(1,2,3,9)            179.955          estimate D2E/DX2                !
 ! D11   D(8,2,3,4)           -179.9939         estimate D2E/DX2                !
 ! D12   D(8,2,3,9)             -0.0197         estimate D2E/DX2                !
 ! D13   D(2,3,4,5)             -0.0239         estimate D2E/DX2                !
 ! D14   D(2,3,4,10)           179.9558         estimate D2E/DX2                !
 ! D15   D(9,3,4,5)           -179.9981         estimate D2E/DX2                !
 ! D16   D(9,3,4,10)            -0.0184         estimate D2E/DX2                !
 ! D17   D(3,4,5,6)              0.0909         estimate D2E/DX2                !
 ! D18   D(3,4,5,11)           179.9571         estimate D2E/DX2                !
 ! D19   D(10,4,5,6)          -179.8888         estimate D2E/DX2                !
 ! D20   D(10,4,5,11)           -0.0226         estimate D2E/DX2                !
 ! D21   D(4,5,6,1)             -0.1149         estimate D2E/DX2                !
 ! D22   D(4,5,6,12)          -179.9736         estimate D2E/DX2                !
 ! D23   D(11,5,6,1)          -179.9811         estimate D2E/DX2                !
 ! D24   D(11,5,6,12)            0.1602         estimate D2E/DX2                !
 --------------------------------------------------------------------------------
 Trust Radius=3.00D-01 FncErr=1.00D-07 GrdErr=1.00D-06
 Number of steps in this run=     64 maximum allowed number of steps=    100.
 GradGradGradGradGradGradGradGradGradGradGradGradGradGradGradGradGradGrad

                          Input orientation:                          
 ---------------------------------------------------------------------
 Center     Atomic      Atomic             Coordinates (Angstroms)
 Number     Number       Type             X           Y           Z
 ---------------------------------------------------------------------
      1          6           0        0.164100   -1.372600   -0.000200
      2          6           0       -1.106600   -0.828400    0.000100
      3          6           0       -1.270700    0.544200    0.000000
      4          6           0       -0.164100    1.372600    0.000000
      5          6           0        1.106600    0.828400    0.000600
      6          6           0        1.270700   -0.544200   -0.000700
      7          1           0        0.292300   -2.444900    0.004400
      8          1           0       -1.971200   -1.475600    0.000000
      9          1           0       -2.263500    0.969300   -0.000500
     10          1           0       -0.292300    2.444900   -0.000800
     11          1           0        1.971200    1.475600   -0.000100
     12          1           0        2.263500   -0.969300    0.000200
 ---------------------------------------------------------------------
                    Distance matrix (angstroms):
                    1          2          3          4          5
     1  C    0.000000
     2  C    1.382329   0.000000
     3  C    2.394321   1.382375   0.000000
     4  C    2.764749   2.394307   1.382321   0.000000
     5  C    2.394307   2.764641   2.394227   1.382329   0.000000
     6  C    1.382321   2.394228   2.764657   2.394321   1.382375
     7  H    1.079946   2.137759   3.373086   3.844688   3.373069
     8  H    2.137783   1.080000   2.137824   3.373107   3.844642
     9  H    3.373090   2.137789   1.079982   2.137787   3.373044
    10  H    3.844686   3.373067   2.137739   1.079937   2.137755
    11  H    3.373107   3.844642   3.373043   2.137783   1.080001
    12  H    2.137787   3.373044   3.844639   3.373090   2.137789
                    6          7          8          9         10
     6  C    0.000000
     7  H    2.137745   0.000000
     8  H    3.373043   2.462315   0.000000
     9  H    3.844639   4.264845   2.462311   0.000000
    10  H    3.373083   4.924625   4.264859   2.462321   0.000000
    11  H    2.137824   4.264862   4.924642   4.264859   2.462311
    12  H    1.079983   2.462325   4.264859   4.924622   4.264842
                   11         12
    11  H    0.000000
    12  H    2.462311   0.000000
 Stoichiometry    C6H6
 Framework group  C1[X(C6H6)]
 Deg. of freedom    30
 Full point group                 C1      NOp   1
 Largest Abelian subgroup         C1      NOp   1
 Largest concise Abelian subgroup C1      NOp   1
                         Standard orientation:                         
 ---------------------------------------------------------------------
 Center     Atomic      Atomic             Coordinates (Angstroms)
 Number     Number       Type             X           Y           Z
 ---------------------------------------------------------------------
      1          6           0       -1.381042    0.060675   -0.000248
      2          6           0       -0.637970    1.226297    0.000052
      3          6           0        0.743072    1.165622   -0.000048
      4          6           0        1.381042   -0.060675   -0.000048
      5          6           0        0.637970   -1.226297    0.000552
      6          6           0       -0.743072   -1.165622   -0.000748
      7          1           0       -2.459938    0.108073    0.004352
      8          1           0       -1.136385    2.184412   -0.000048
      9          1           0        1.323553    2.076339   -0.000548
     10          1           0        2.459938   -0.108073   -0.000848
     11          1           0        1.136385   -2.184412   -0.000148
     12          1           0       -1.323553   -2.076339    0.000152
 ---------------------------------------------------------------------
 Rotational constants (GHZ):      5.8010018      5.8005632      2.9003923
 Standard basis: 6-31+G(d) (6D, 7F)
 There are   126 symmetry adapted cartesian basis functions of A   symmetry.
 There are   126 symmetry adapted basis functions of A   symmetry.
   126 basis functions,   216 primitive gaussians,   126 cartesian basis functions
    21 alpha electrons       21 beta electrons
       nuclear repulsion energy       205.1680538300 Hartrees.
 NAtoms=   12 NActive=   12 NUniq=   12 SFac= 1.00D+00 NAtFMM=   60 NAOKFM=F Big=F
 Integral buffers will be    131072 words long.
 Raffenetti 2 integral format.
 Two-electron integral symmetry is turned on.
 ------------------------------------------------------------------------------
 Polarizable Continuum Model (PCM)
 =================================
 Model                : PCM (using non-symmetric T matrix).
 Atomic radii         : UFF (Universal Force Field).
 Polarization charges : Total charges.
 Charge compensation  : None.
 Solution method      : On-the-fly selection.
 Cavity type          : Scaled VdW (van der Waals Surface) (Alpha=1.100).
 Cavity algorithm     : GePol (No added spheres)
                        Default sphere list used, NSphG=   12.
                        Lebedev-Laikov grids with approx.  5.0 points / Ang**2.
                        Smoothing algorithm: Karplus/York (Gamma=1.0000).
                        Polarization charges: spherical gaussians, with
                                              point-specific exponents (IZeta= 3).
                        Self-potential: point-specific (ISelfS= 7).
                        Self-field    : sphere-specific E.n sum rule (ISelfD= 2).
 1st derivatives      : Analytical E(r).r(x)/FMM algorithm (CHGder, D1EAlg=3).
                        Cavity 1st derivative terms included.
 Solvent              : Water, Eps=  78.355300 Eps(inf)=   1.777849
 ------------------------------------------------------------------------------
 Spheres list:
 ISph  on   Nord     Re0    Alpha      Xe            Ye            Ze
    1   C      1    1.9255  1.100     -1.381042      0.060675     -0.000248
    2   C      2    1.9255  1.100     -0.637970      1.226297      0.000052
    3   C      3    1.9255  1.100      0.743072      1.165622     -0.000048
    4   C      4    1.9255  1.100      1.381042     -0.060675     -0.000048
    5   C      5    1.9255  1.100      0.637970     -1.226297      0.000552
    6   C      6    1.9255  1.100     -0.743072     -1.165622     -0.000748
    7   H      7    1.4430  1.100     -2.459938      0.108073      0.004352
    8   H      8    1.4430  1.100     -1.136385      2.184412     -0.000048
    9   H      9    1.4430  1.100      1.323553      2.076339     -0.000548
   10   H     10    1.4430  1.100      2.459938     -0.108073     -0.000848
   11   H     11    1.4430  1.100      1.136385     -2.184412     -0.000148
   12   H     12    1.4430  1.100     -1.323553     -2.076339      0.000152
 ------------------------------------------------------------------------------
 One-electron integrals computed using PRISM.
 NBasis=   126 RedAO= T EigKep=  5.84D-06  NBF=   126
 NBsUse=   126 1.00D-06 EigRej= -1.00D+00 NBFU=   126
 ExpMin= 4.38D-02 ExpMax= 3.05D+03 ExpMxC= 4.57D+02 IAcc=2 IRadAn=         4 AccDes= 0.00D+00
 Harris functional with IExCor=  402 and IRadAn=       4 diagonalized for initial guess.
 HarFok:  IExCor=  402 AccDes= 0.00D+00 IRadAn=         4 IDoV= 1 UseB2=F ITyADJ=14
 ICtDFT=  3500011 ScaDFX=  1.000000  1.000000  1.000000  1.000000
 FoFCou: FMM=F IPFlag=           0 FMFlag=      100000 FMFlg1=           0
         NFxFlg=           0 DoJE=T BraDBF=F KetDBF=T FulRan=T
         wScrn=  0.000000 ICntrl=     500 IOpCl=  0 I1Cent=   200000004 NGrid=           0
         NMat0=    1 NMatS0=      1 NMatT0=    0 NMatD0=    1 NMtDS0=    0 NMtDT0=    0
 Petite list used in FoFCou.
 Keep R1 ints in memory in canonical form, NReq=36347018.
 Requested convergence on RMS density matrix=1.00D-08 within 128 cycles.
 Requested convergence on MAX density matrix=1.00D-06.
 Requested convergence on             energy=1.00D-06.
 No special actions if energy rises.
 Inv3:  Mode=1 IEnd=     3447552.
 Iteration    1 A*A^-1 deviation from unit magnitude is 4.33D-15 for   1066.
 Iteration    1 A*A^-1 deviation from orthogonality  is 3.30D-15 for   1062    975.
 Iteration    1 A^-1*A deviation from unit magnitude is 4.44D-15 for   1066.
 Iteration    1 A^-1*A deviation from orthogonality  is 3.14D-09 for    610    598.
 Iteration    2 A*A^-1 deviation from unit magnitude is 2.00D-15 for      6.
 Iteration    2 A*A^-1 deviation from orthogonality  is 2.60D-15 for   1048    438.
 Iteration    2 A^-1*A deviation from unit magnitude is 9.99D-16 for     98.
 Iteration    2 A^-1*A deviation from orthogonality  is 3.56D-16 for    994    455.
 Error on total polarization charges =  0.01592
 SCF Done:  E(RB3LYP) =  -232.259926577     A.U. after    9 cycles
            NFock=  9  Conv=0.33D-08     -V/T= 2.0089

 **********************************************************************

            Population analysis using the SCF density.

 **********************************************************************

 Orbital symmetries:
       Occupied  (A) (A) (A) (A) (A) (A) (A) (A) (A) (A) (A) (A)
                 (A) (A) (A) (A) (A) (A) (A) (A) (A)
       Virtual   (A) (A) (A) (A) (A) (A) (A) (A) (A) (A) (A) (A)
                 (A) (A) (A) (A) (A) (A) (A) (A) (A) (A) (A) (A)
                 (A) (A) (A) (A) (A) (A) (A) (A) (A) (A) (A) (A)
                 (A) (A) (A) (A) (A) (A) (A) (A) (A) (A) (A) (A)
                 (A) (A) (A) (A) (A) (A) (A) (A) (A) (A) (A) (A)
                 (A) (A) (A) (A) (A) (A) (A) (A) (A) (A) (A) (A)
                 (A) (A) (A) (A) (A) (A) (A) (A) (A) (A) (A) (A)
                 (A) (A) (A) (A) (A) (A) (A) (A) (A) (A) (A) (A)
                 (A) (A) (A) (A) (A) (A) (A) (A) (A)
 The electronic state is 1-A.
 Alpha  occ. eigenvalues --  -10.19441 -10.19411 -10.19411 -10.19349 -10.19349
 Alpha  occ. eigenvalues --  -10.19319  -0.86662  -0.75525  -0.75524  -0.60976
 Alpha  occ. eigenvalues --   -0.60976  -0.53229  -0.46485  -0.45367  -0.42829
 Alpha  occ. eigenvalues --   -0.42826  -0.37805  -0.34906  -0.34906  -0.26211
 Alpha  occ. eigenvalues --   -0.26210
 Alpha virt. eigenvalues --   -0.01360  -0.01359   0.01198   0.03137   0.03138
 Alpha virt. eigenvalues --    0.05248   0.05249   0.05859   0.07025   0.08542
 Alpha virt. eigenvalues --    0.08878   0.08903   0.10541   0.13116   0.14303
 Alpha virt. eigenvalues --    0.14316   0.14917   0.14951   0.15154   0.15158
 Alpha virt. eigenvalues --    0.19957   0.20402   0.20403   0.20951   0.21165
 Alpha virt. eigenvalues --    0.21183   0.24038   0.24903   0.24905   0.27309
 Alpha virt. eigenvalues --    0.28657   0.28661   0.33071   0.35705   0.35706
 Alpha virt. eigenvalues --    0.35707   0.35708   0.57081   0.58233   0.62167
 Alpha virt. eigenvalues --    0.62397   0.65337   0.71167   0.71168   0.72648
 Alpha virt. eigenvalues --    0.72650   0.74471   0.74472   0.77364   0.77369
 Alpha virt. eigenvalues --    0.80337   0.82606   0.90437   0.93617   0.93622
 Alpha virt. eigenvalues --    0.96320   0.96321   0.98941   1.03538   1.07529
 Alpha virt. eigenvalues --    1.07538   1.14445   1.14449   1.16980   1.16981
 Alpha virt. eigenvalues --    1.24937   1.31836   1.38274   1.44424   1.44430
 Alpha virt. eigenvalues --    1.48200   1.48202   1.50483   1.50485   1.74937
 Alpha virt. eigenvalues --    1.82992   1.89656   1.92477   2.00334   2.00336
 Alpha virt. eigenvalues --    2.13020   2.13025   2.16022   2.16030   2.18371
 Alpha virt. eigenvalues --    2.18373   2.31556   2.31559   2.33980   2.58062
 Alpha virt. eigenvalues --    2.58066   2.67332   2.73615   2.73620   2.74942
 Alpha virt. eigenvalues --    2.74944   2.83451   3.03697   3.44817   4.24030
 Alpha virt. eigenvalues --    4.24035   4.24380   4.37769   4.37770   4.69023
          Condensed to atoms (all electrons):
               1          2          3          4          5          6
     1  C    4.990162   0.559243  -0.103460   0.000226  -0.103677   0.559197
     2  C    0.559243   4.989827   0.559445  -0.103681   0.000256  -0.103714
     3  C   -0.103460   0.559445   4.989586   0.559202  -0.103716   0.000285
     4  C    0.000226  -0.103681   0.559202   4.990174   0.559229  -0.103451
     5  C   -0.103677   0.000256  -0.103716   0.559229   4.989852   0.559425
     6  C    0.559197  -0.103714   0.000285  -0.103451   0.559425   4.989613
     7  H    0.308466  -0.016576   0.013450  -0.009683   0.013460  -0.016508
     8  H   -0.016525   0.308291  -0.016423   0.013466  -0.009670   0.013456
     9  H    0.013421  -0.016486   0.308370  -0.016447   0.013440  -0.009669
    10  H   -0.009684   0.013462  -0.016512   0.308472  -0.016583   0.013451
    11  H    0.013467  -0.009670   0.013457  -0.016525   0.308291  -0.016425
    12  H   -0.016449   0.013442  -0.009670   0.013421  -0.016488   0.308373
               7          8          9         10         11         12
     1  C    0.308466  -0.016525   0.013421  -0.009684   0.013467  -0.016449
     2  C   -0.016576   0.308291  -0.016486   0.013462  -0.009670   0.013442
     3  C    0.013450  -0.016423   0.308370  -0.016512   0.013457  -0.009670
     4  C   -0.009683   0.013466  -0.016447   0.308472  -0.016525   0.013421
     5  C    0.013460  -0.009670   0.013440  -0.016583   0.308291  -0.016488
     6  C   -0.016508   0.013456  -0.009669   0.013451  -0.016425   0.308373
     7  H    0.524394  -0.005392  -0.000167   0.000017  -0.000167  -0.005395
     8  H   -0.005392   0.524457  -0.005394  -0.000167   0.000017  -0.000167
     9  H   -0.000167  -0.005394   0.524387  -0.005396  -0.000167   0.000017
    10  H    0.000017  -0.000167  -0.005396   0.524396  -0.005392  -0.000167
    11  H   -0.000167   0.000017  -0.000167  -0.005392   0.524458  -0.005394
    12  H   -0.005395  -0.000167   0.000017  -0.000167  -0.005394   0.524386
 Mulliken charges:
               1
     1  C   -0.194385
     2  C   -0.193839
     3  C   -0.194013
     4  C   -0.194403
     5  C   -0.193820
     6  C   -0.194033
     7  H    0.194102
     8  H    0.194052
     9  H    0.194092
    10  H    0.194103
    11  H    0.194051
    12  H    0.194092
 Sum of Mulliken charges =   0.00000
 Mulliken charges with hydrogens summed into heavy atoms:
               1
     1  C   -0.000282
     2  C    0.000213
     3  C    0.000079
     4  C   -0.000300
     5  C    0.000231
     6  C    0.000059
 Electronic spatial extent (au):  <R**2>=            452.5759
 Charge=              0.0000 electrons
 Dipole moment (field-independent basis, Debye):
    X=              0.0000    Y=              0.0000    Z=              0.0029  Tot=              0.0029
 Quadrupole moment (field-independent basis, Debye-Ang):
   XX=            -31.6533   YY=            -31.6558   ZZ=            -40.2718
   XY=              0.0012   XZ=             -0.0154   YZ=             -0.0010
 Traceless Quadrupole moment (field-independent basis, Debye-Ang):
   XX=              2.8736   YY=              2.8712   ZZ=             -5.7448
   XY=              0.0012   XZ=             -0.0154   YZ=             -0.0010
 Octapole moment (field-independent basis, Debye-Ang**2):
  XXX=              0.0003  YYY=              0.0000  ZZZ=              0.0055  XYY=              0.0000
  XXY=              0.0000  XXZ=              0.0247  XZZ=              0.0000  YZZ=              0.0000
  YYZ=             -0.0015  XYZ=              0.0003
 Hexadecapole moment (field-independent basis, Debye-Ang**3):
 XXXX=           -270.1698 YYYY=           -270.1781 ZZZZ=            -51.9706 XXXY=              0.0041
 XXXZ=             -0.0936 YYYX=              0.0056 YYYZ=             -0.0094 ZZZX=             -0.0048
 ZZZY=             -0.0031 XXYY=            -90.0585 XXZZ=            -64.8685 YYZZ=            -64.8713
 XXYZ=              0.0001 YYXZ=             -0.0069 ZZXY=              0.0004
 N-N= 2.051680538300D+02 E-N=-9.476583207752D+02  KE= 2.302153281512D+02
 Evaluate density.
 Using the total density.
 Monte-Carlo method of calculating molar volume:
 based on  0.001 e/bohr**3 density envelope.
 Number of points per bohr**3 =   20 CutOff= 1.00D-04
 Using the SCF density.
 There are       322 points.  Will hold    182333 in memory.
 LenV=    81138308 MDV=   104857600.
 Box volume = 4197.773 fraction occupied=0.177
 Integrated density= 2.5789010341915070D+01 error=-1.6210989658084930D+01
 Molar volume =  743.084 bohr**3/mol ( 66.312 cm**3/mol)
 Recommended a0 for SCRF calculation =  3.77 angstrom (  7.13 bohr)
 ******************************Gaussian NBO Version 3.1******************************
             N A T U R A L   A T O M I C   O R B I T A L   A N D
          N A T U R A L   B O N D   O R B I T A L   A N A L Y S I S
 ******************************Gaussian NBO Version 3.1******************************
       /RESON  / : Allow strongly delocalized NBO set

 Analyzing the SCF density

 Job title: sol opt                                                         

 Storage needed:     48252 in NPA,     64045 in NBO ( 104856784 available)


 NATURAL POPULATIONS:  Natural atomic orbital occupancies 
                                                          
   NAO  Atom  No  lang   Type(AO)    Occupancy      Energy
 ----------------------------------------------------------
     1    C    1  S      Cor( 1S)     1.99910     -10.04104
     2    C    1  S      Val( 2S)     0.96193      -0.17473
     3    C    1  S      Ryd( 4S)     0.00084       1.04725
     4    C    1  S      Ryd( 3S)     0.00013       0.64826
     5    C    1  S      Ryd( 5S)     0.00003       3.95479
     6    C    1  px     Val( 2p)     1.20948      -0.05913
     7    C    1  px     Ryd( 4p)     0.00497       1.13000
     8    C    1  px     Ryd( 3p)     0.00042       0.32719
     9    C    1  py     Val( 2p)     1.06388      -0.03823
    10    C    1  py     Ryd( 4p)     0.00509       0.62847
    11    C    1  py     Ryd( 3p)     0.00013       0.36337
    12    C    1  pz     Val( 2p)     0.99704      -0.10806
    13    C    1  pz     Ryd( 4p)     0.00150       0.54423
    14    C    1  pz     Ryd( 3p)     0.00063       0.29359
    15    C    1  dxy    Ryd( 3d)     0.00066       2.41363
    16    C    1  dxz    Ryd( 3d)     0.00034       1.79686
    17    C    1  dyz    Ryd( 3d)     0.00048       1.95249
    18    C    1  dx2y2  Ryd( 3d)     0.00089       2.39576
    19    C    1  dz2    Ryd( 3d)     0.00042       2.28583

    20    C    2  S      Cor( 1S)     1.99910     -10.04106
    21    C    2  S      Val( 2S)     0.96195      -0.17476
    22    C    2  S      Ryd( 4S)     0.00084       1.04736
    23    C    2  S      Ryd( 3S)     0.00013       0.64787
    24    C    2  S      Ryd( 5S)     0.00003       3.95506
    25    C    2  px     Val( 2p)     1.09471      -0.04266
    26    C    2  px     Ryd( 4p)     0.00506       0.73470
    27    C    2  px     Ryd( 3p)     0.00019       0.35571
    28    C    2  py     Val( 2p)     1.17860      -0.05471
    29    C    2  py     Ryd( 4p)     0.00500       1.02375
    30    C    2  py     Ryd( 3p)     0.00036       0.33487
    31    C    2  pz     Val( 2p)     0.99706      -0.10807
    32    C    2  pz     Ryd( 4p)     0.00150       0.54416
    33    C    2  pz     Ryd( 3p)     0.00063       0.29354
    34    C    2  dxy    Ryd( 3d)     0.00081       2.40157
    35    C    2  dxz    Ryd( 3d)     0.00045       1.91949
    36    C    2  dyz    Ryd( 3d)     0.00037       1.82981
    37    C    2  dx2y2  Ryd( 3d)     0.00073       2.40774
    38    C    2  dz2    Ryd( 3d)     0.00042       2.28578

    39    C    3  S      Cor( 1S)     1.99910     -10.04105
    40    C    3  S      Val( 2S)     0.96195      -0.17475
    41    C    3  S      Ryd( 4S)     0.00084       1.04721
    42    C    3  S      Ryd( 3S)     0.00013       0.64811
    43    C    3  S      Ryd( 5S)     0.00003       3.95500
    44    C    3  px     Val( 2p)     1.10580      -0.04425
    45    C    3  px     Ryd( 4p)     0.00505       0.77296
    46    C    3  px     Ryd( 3p)     0.00021       0.35292
    47    C    3  py     Val( 2p)     1.16753      -0.05311
    48    C    3  py     Ryd( 4p)     0.00501       0.98555
    49    C    3  py     Ryd( 3p)     0.00033       0.33764
    50    C    3  pz     Val( 2p)     0.99704      -0.10806
    51    C    3  pz     Ryd( 4p)     0.00150       0.54420
    52    C    3  pz     Ryd( 3p)     0.00063       0.29352
    53    C    3  dxy    Ryd( 3d)     0.00085       2.39884
    54    C    3  dxz    Ryd( 3d)     0.00044       1.90762
    55    C    3  dyz    Ryd( 3d)     0.00038       1.84167
    56    C    3  dx2y2  Ryd( 3d)     0.00069       2.41051
    57    C    3  dz2    Ryd( 3d)     0.00042       2.28579

    58    C    4  S      Cor( 1S)     1.99910     -10.04104
    59    C    4  S      Val( 2S)     0.96193      -0.17473
    60    C    4  S      Ryd( 4S)     0.00084       1.04727
    61    C    4  S      Ryd( 3S)     0.00013       0.64826
    62    C    4  S      Ryd( 5S)     0.00003       3.95479
    63    C    4  px     Val( 2p)     1.20948      -0.05913
    64    C    4  px     Ryd( 4p)     0.00497       1.13006
    65    C    4  px     Ryd( 3p)     0.00042       0.32719
    66    C    4  py     Val( 2p)     1.06388      -0.03823
    67    C    4  py     Ryd( 4p)     0.00509       0.62848
    68    C    4  py     Ryd( 3p)     0.00013       0.36337
    69    C    4  pz     Val( 2p)     0.99703      -0.10806
    70    C    4  pz     Ryd( 4p)     0.00150       0.54422
    71    C    4  pz     Ryd( 3p)     0.00063       0.29358
    72    C    4  dxy    Ryd( 3d)     0.00066       2.41363
    73    C    4  dxz    Ryd( 3d)     0.00034       1.79683
    74    C    4  dyz    Ryd( 3d)     0.00048       1.95249
    75    C    4  dx2y2  Ryd( 3d)     0.00089       2.39578
    76    C    4  dz2    Ryd( 3d)     0.00042       2.28584

    77    C    5  S      Cor( 1S)     1.99910     -10.04106
    78    C    5  S      Val( 2S)     0.96195      -0.17476
    79    C    5  S      Ryd( 4S)     0.00084       1.04736
    80    C    5  S      Ryd( 3S)     0.00013       0.64786
    81    C    5  S      Ryd( 5S)     0.00003       3.95506
    82    C    5  px     Val( 2p)     1.09471      -0.04266
    83    C    5  px     Ryd( 4p)     0.00506       0.73470
    84    C    5  px     Ryd( 3p)     0.00019       0.35570
    85    C    5  py     Val( 2p)     1.17860      -0.05471
    86    C    5  py     Ryd( 4p)     0.00500       1.02375
    87    C    5  py     Ryd( 3p)     0.00036       0.33487
    88    C    5  pz     Val( 2p)     0.99706      -0.10807
    89    C    5  pz     Ryd( 4p)     0.00150       0.54416
    90    C    5  pz     Ryd( 3p)     0.00063       0.29354
    91    C    5  dxy    Ryd( 3d)     0.00081       2.40157
    92    C    5  dxz    Ryd( 3d)     0.00045       1.91949
    93    C    5  dyz    Ryd( 3d)     0.00037       1.82981
    94    C    5  dx2y2  Ryd( 3d)     0.00073       2.40774
    95    C    5  dz2    Ryd( 3d)     0.00042       2.28578

    96    C    6  S      Cor( 1S)     1.99910     -10.04105
    97    C    6  S      Val( 2S)     0.96195      -0.17475
    98    C    6  S      Ryd( 4S)     0.00084       1.04720
    99    C    6  S      Ryd( 3S)     0.00013       0.64812
   100    C    6  S      Ryd( 5S)     0.00003       3.95500
   101    C    6  px     Val( 2p)     1.10580      -0.04425
   102    C    6  px     Ryd( 4p)     0.00505       0.77295
   103    C    6  px     Ryd( 3p)     0.00021       0.35292
   104    C    6  py     Val( 2p)     1.16753      -0.05311
   105    C    6  py     Ryd( 4p)     0.00501       0.98554
   106    C    6  py     Ryd( 3p)     0.00033       0.33764
   107    C    6  pz     Val( 2p)     0.99704      -0.10806
   108    C    6  pz     Ryd( 4p)     0.00150       0.54420
   109    C    6  pz     Ryd( 3p)     0.00063       0.29352
   110    C    6  dxy    Ryd( 3d)     0.00085       2.39883
   111    C    6  dxz    Ryd( 3d)     0.00044       1.90763
   112    C    6  dyz    Ryd( 3d)     0.00038       1.84168
   113    C    6  dx2y2  Ryd( 3d)     0.00069       2.41051
   114    C    6  dz2    Ryd( 3d)     0.00042       2.28579

   115    H    7  S      Val( 1S)     0.75118       0.10142
   116    H    7  S      Ryd( 2S)     0.00088       0.55876

   117    H    8  S      Val( 1S)     0.75120       0.10137
   118    H    8  S      Ryd( 2S)     0.00088       0.55877

   119    H    9  S      Val( 1S)     0.75118       0.10140
   120    H    9  S      Ryd( 2S)     0.00088       0.55877

   121    H   10  S      Val( 1S)     0.75118       0.10143
   122    H   10  S      Ryd( 2S)     0.00088       0.55875

   123    H   11  S      Val( 1S)     0.75120       0.10137
   124    H   11  S      Ryd( 2S)     0.00088       0.55877

   125    H   12  S      Val( 1S)     0.75118       0.10140
   126    H   12  S      Ryd( 2S)     0.00088       0.55877

 WARNING:  Population inversion found on atom  C    1
           Population inversion found on atom  C    2
           Population inversion found on atom  C    3
           Population inversion found on atom  C    4
           Population inversion found on atom  C    5
           Population inversion found on atom  C    6


 Summary of Natural Population Analysis:                  
                                                          
                                       Natural Population 
                Natural  -----------------------------------------------
    Atom  No    Charge         Core      Valence    Rydberg      Total
 -----------------------------------------------------------------------
      C    1   -0.24795      1.99910     4.23233    0.01652     6.24795
      C    2   -0.24793      1.99910     4.23232    0.01652     6.24793
      C    3   -0.24794      1.99910     4.23232    0.01652     6.24794
      C    4   -0.24794      1.99910     4.23233    0.01652     6.24794
      C    5   -0.24793      1.99910     4.23232    0.01652     6.24793
      C    6   -0.24794      1.99910     4.23232    0.01652     6.24794
      H    7    0.24795      0.00000     0.75118    0.00088     0.75205
      H    8    0.24793      0.00000     0.75120    0.00088     0.75207
      H    9    0.24795      0.00000     0.75118    0.00088     0.75205
      H   10    0.24795      0.00000     0.75118    0.00088     0.75205
      H   11    0.24793      0.00000     0.75120    0.00088     0.75207
      H   12    0.24795      0.00000     0.75118    0.00088     0.75205
 =======================================================================
   * Total *    0.00000     11.99458    29.90103    0.10439    42.00000

                                 Natural Population      
 --------------------------------------------------------
   Core                      11.99458 ( 99.9548% of  12)
   Valence                   29.90103 ( 99.6701% of  30)
   Natural Minimal Basis     41.89561 ( 99.7515% of  42)
   Natural Rydberg Basis      0.10439 (  0.2485% of  42)
 --------------------------------------------------------

    Atom  No          Natural Electron Configuration
 ----------------------------------------------------------------------------
      C    1      [core]2S( 0.96)2p( 3.27)4p( 0.01)
      C    2      [core]2S( 0.96)2p( 3.27)4p( 0.01)
      C    3      [core]2S( 0.96)2p( 3.27)4p( 0.01)
      C    4      [core]2S( 0.96)2p( 3.27)4p( 0.01)
      C    5      [core]2S( 0.96)2p( 3.27)4p( 0.01)
      C    6      [core]2S( 0.96)2p( 3.27)4p( 0.01)
      H    7            1S( 0.75)
      H    8            1S( 0.75)
      H    9            1S( 0.75)
      H   10            1S( 0.75)
      H   11            1S( 0.75)
      H   12            1S( 0.75)


 NATURAL BOND ORBITAL ANALYSIS:

                       Occupancies       Lewis Structure    Low   High
           Occ.    -------------------  -----------------   occ   occ
  Cycle   Thresh.   Lewis   Non-Lewis     CR  BD  3C  LP    (L)   (NL)   Dev
 =============================================================================
   1(1)    1.90    38.76058   3.23942      6  12   0   3     3      3    0.44
   2(2)    1.90    38.76058   3.23942      6  12   0   3     3      3    0.44
   3(1)    1.80    38.76058   3.23942      6  12   0   3     3      3    0.44
   4(2)    1.80    38.76058   3.23942      6  12   0   3     3      3    0.44
   5(1)    1.70    38.76058   3.23942      6  12   0   3     3      3    0.44
   6(2)    1.70    38.76058   3.23942      6  12   0   3     3      3    0.44
   7(1)    1.60    40.09233   1.90767      6  14   0   1     1      3    0.44
   8(2)    1.60    40.75820   1.24180      6  15   0   0     0      3    0.44
   9(3)    1.60    40.75820   1.24180      6  15   0   0     0      3    0.44
  10(1)    1.50    40.75820   1.24180      6  15   0   0     0      3    0.44
  11(2)    1.50    40.09233   1.90767      6  14   0   1     1      3    0.44
  12(3)    1.50    40.75820   1.24180      6  15   0   0     0      3    0.44
  13(1)    1.60    40.75820   1.24180      6  15   0   0     0      3    0.44
 -----------------------------------------------------------------------------

 Structure accepted: RESONANCE keyword permits strongly delocalized structure

 --------------------------------------------------------
   Core                     11.99460 ( 99.955% of  12)
   Valence Lewis            28.76360 ( 95.879% of  30)
  ==================       ============================
   Total Lewis              40.75820 ( 97.043% of  42)
  -----------------------------------------------------
   Valence non-Lewis         1.17616 (  2.800% of  42)
   Rydberg non-Lewis         0.06564 (  0.156% of  42)
  ==================       ============================
   Total non-Lewis           1.24180 (  2.957% of  42)
 --------------------------------------------------------


       (Occupancy)   Bond orbital/ Coefficients/ Hybrids
 ---------------------------------------------------------------------------------
     1. (1.98000) BD ( 1) C   1 - C   2  
                ( 50.00%)   0.7071* C   1 s( 35.06%)p 1.85( 64.90%)d 0.00(  0.04%)
                                           -0.0001  0.5920 -0.0091  0.0016  0.0007
                                            0.4164  0.0150 -0.0124  0.6885 -0.0356
                                           -0.0016 -0.0001 -0.0001  0.0000  0.0161
                                            0.0000  0.0000 -0.0047 -0.0112
                ( 50.00%)   0.7071* C   2 s( 35.06%)p 1.85( 64.90%)d 0.00(  0.04%)
                                           -0.0001  0.5920 -0.0091  0.0016  0.0007
                                           -0.4484  0.0386 -0.0038 -0.6681  0.0014
                                            0.0120 -0.0002  0.0000  0.0000  0.0140
                                            0.0000  0.0000 -0.0093 -0.0112
     2. (1.98000) BD ( 1) C   1 - C   6  
                ( 50.00%)   0.7071* C   1 s( 35.06%)p 1.85( 64.90%)d 0.00(  0.04%)
                                           -0.0001  0.5920 -0.0091  0.0016  0.0007
                                            0.3544  0.0181 -0.0122 -0.7223  0.0341
                                            0.0027 -0.0007  0.0000  0.0000 -0.0150
                                            0.0000  0.0000 -0.0074 -0.0112
                ( 50.00%)   0.7071* C   6 s( 35.06%)p 1.85( 64.90%)d 0.00(  0.04%)
                                           -0.0001  0.5920 -0.0091  0.0016  0.0007
                                           -0.3880  0.0383 -0.0048  0.7048 -0.0048
                                           -0.0116 -0.0001  0.0000  0.0000 -0.0121
                                            0.0000  0.0000 -0.0116 -0.0112
     3. (1.66454) BD ( 2) C   1 - C   6  
                ( 50.00%)   0.7071* C   1 s(  0.00%)p 1.00( 99.96%)d 0.00(  0.04%)
                                            0.0000 -0.0008 -0.0001 -0.0001  0.0000
                                            0.0022  0.0002  0.0001 -0.0005  0.0000
                                            0.0000  0.9993  0.0254  0.0203  0.0000
                                            0.0176 -0.0101  0.0000  0.0000
                ( 50.00%)   0.7071* C   6 s(  0.00%)p 1.00( 99.96%)d 0.00(  0.04%)
                                            0.0000 -0.0004 -0.0001  0.0000  0.0000
                                            0.0002  0.0001  0.0000  0.0005 -0.0001
                                            0.0000  0.9993  0.0254  0.0204  0.0000
                                            0.0018  0.0202  0.0000  0.0000
     4. (1.98166) BD ( 1) C   1 - H   7  
                ( 62.50%)   0.7906* C   1 s( 29.85%)p 2.35( 70.10%)d 0.00(  0.05%)
                                            0.0003 -0.5462 -0.0139  0.0032  0.0013
                                            0.8363  0.0109 -0.0083 -0.0367 -0.0005
                                            0.0004 -0.0023  0.0000  0.0001  0.0017
                                            0.0002  0.0000 -0.0189  0.0121
                ( 37.50%)   0.6124* H   7 s(100.00%)
                                           -1.0000 -0.0026
     5. (1.98000) BD ( 1) C   2 - C   3  
                ( 50.00%)   0.7071* C   2 s( 35.06%)p 1.85( 64.90%)d 0.00(  0.04%)
                                           -0.0001  0.5920 -0.0091  0.0016  0.0007
                                            0.8044 -0.0233 -0.0076 -0.0164 -0.0308
                                            0.0099 -0.0004  0.0000  0.0000 -0.0040
                                            0.0000  0.0000  0.0163 -0.0112
                ( 50.00%)   0.7071* C   3 s( 35.06%)p 1.85( 64.90%)d 0.00(  0.04%)
                                           -0.0001  0.5920 -0.0091  0.0016  0.0007
                                           -0.8028  0.0205  0.0085  0.0542 -0.0327
                                            0.0092 -0.0002  0.0000  0.0000  0.0011
                                            0.0000  0.0000  0.0167 -0.0112
     6. (1.66453) BD ( 2) C   2 - C   3  
                ( 50.00%)   0.7071* C   2 s(  0.00%)p 1.00( 99.96%)d 0.00(  0.04%)
                                            0.0000  0.0004  0.0000  0.0000  0.0000
                                            0.0003  0.0000  0.0000 -0.0001  0.0000
                                            0.0000  0.9993  0.0254  0.0204  0.0000
                                            0.0166 -0.0116  0.0000  0.0000
                ( 50.00%)   0.7071* C   3 s(  0.00%)p 1.00( 99.96%)d 0.00(  0.04%)
                                            0.0000  0.0003  0.0000  0.0000  0.0000
                                            0.0000  0.0000  0.0000  0.0002  0.0000
                                            0.0000  0.9993  0.0254  0.0204  0.0000
                                           -0.0175 -0.0101  0.0000  0.0000
     7. (1.98167) BD ( 1) C   2 - H   8  
                ( 62.50%)   0.7906* C   2 s( 29.85%)p 2.35( 70.10%)d 0.00(  0.05%)
                                           -0.0003  0.5461  0.0139 -0.0032 -0.0013
                                           -0.3863 -0.0050  0.0038  0.7427  0.0097
                                           -0.0074  0.0000  0.0000  0.0000 -0.0155
                                            0.0000  0.0000 -0.0109 -0.0121
                ( 37.50%)   0.6124* H   8 s(100.00%)
                                            1.0000  0.0026
     8. (1.98000) BD ( 1) C   3 - C   4  
                ( 50.00%)   0.7071* C   3 s( 35.06%)p 1.85( 64.90%)d 0.00(  0.04%)
                                           -0.0001  0.5920 -0.0091  0.0016  0.0007
                                            0.3880 -0.0383  0.0048 -0.7048  0.0048
                                            0.0116  0.0000  0.0000  0.0000 -0.0121
                                            0.0000  0.0000 -0.0116 -0.0112
                ( 50.00%)   0.7071* C   4 s( 35.06%)p 1.85( 64.90%)d 0.00(  0.04%)
                                           -0.0001  0.5920 -0.0091  0.0016  0.0007
                                           -0.3544 -0.0181  0.0122  0.7223 -0.0341
                                           -0.0027  0.0000  0.0000  0.0000 -0.0150
                                            0.0000  0.0000 -0.0074 -0.0112
     9. (1.98166) BD ( 1) C   3 - H   9  
                ( 62.50%)   0.7906* C   3 s( 29.85%)p 2.35( 70.10%)d 0.00(  0.05%)
                                           -0.0003  0.5462  0.0139 -0.0032 -0.0013
                                            0.4500  0.0058 -0.0045  0.7059  0.0092
                                           -0.0070 -0.0003  0.0000  0.0000  0.0172
                                            0.0000  0.0000 -0.0080 -0.0121
                ( 37.50%)   0.6124* H   9 s(100.00%)
                                            1.0000  0.0026
    10. (1.98000) BD ( 1) C   4 - C   5  
                ( 50.00%)   0.7071* C   4 s( 35.06%)p 1.85( 64.90%)d 0.00(  0.04%)
                                           -0.0001  0.5920 -0.0091  0.0016  0.0007
                                           -0.4164 -0.0150  0.0124 -0.6885  0.0356
                                            0.0016  0.0004  0.0000  0.0000  0.0161
                                            0.0000  0.0000 -0.0047 -0.0112
                ( 50.00%)   0.7071* C   5 s( 35.06%)p 1.85( 64.90%)d 0.00(  0.04%)
                                           -0.0001  0.5920 -0.0091  0.0016  0.0007
                                            0.4484 -0.0386  0.0038  0.6681 -0.0014
                                           -0.0120 -0.0001  0.0000  0.0000  0.0140
                                            0.0000  0.0000 -0.0093 -0.0112
    11. (1.66454) BD ( 2) C   4 - C   5  
                ( 50.00%)   0.7071* C   4 s(  0.00%)p 1.00( 99.96%)d 0.00(  0.04%)
                                            0.0000 -0.0001  0.0001  0.0000  0.0000
                                            0.0004  0.0000  0.0000  0.0003  0.0000
                                            0.0000  0.9993  0.0254  0.0203  0.0000
                                           -0.0184 -0.0085  0.0000  0.0000
                ( 50.00%)   0.7071* C   5 s(  0.00%)p 1.00( 99.96%)d 0.00(  0.04%)
                                            0.0000  0.0007  0.0000  0.0000  0.0000
                                           -0.0005  0.0000  0.0000 -0.0001  0.0000
                                            0.0000  0.9993  0.0254  0.0204  0.0000
                                            0.0000  0.0203  0.0000  0.0000
    12. (1.98166) BD ( 1) C   4 - H  10  
                ( 62.50%)   0.7906* C   4 s( 29.85%)p 2.35( 70.10%)d 0.00(  0.05%)
                                           -0.0003  0.5462  0.0139 -0.0032 -0.0013
                                            0.8363  0.0109 -0.0083 -0.0367 -0.0005
                                            0.0004 -0.0003  0.0000  0.0000 -0.0017
                                            0.0000  0.0000  0.0189 -0.0121
                ( 37.50%)   0.6124* H  10 s(100.00%)
                                            1.0000  0.0026
    13. (1.98000) BD ( 1) C   5 - C   6  
                ( 50.00%)   0.7071* C   5 s( 35.06%)p 1.85( 64.90%)d 0.00(  0.04%)
                                           -0.0001  0.5920 -0.0091  0.0016  0.0007
                                           -0.8044  0.0233  0.0076  0.0164  0.0308
                                           -0.0099 -0.0008  0.0001  0.0000 -0.0040
                                            0.0001  0.0000  0.0163 -0.0112
                ( 50.00%)   0.7071* C   6 s( 35.06%)p 1.85( 64.90%)d 0.00(  0.04%)
                                           -0.0001  0.5920 -0.0091  0.0016  0.0007
                                            0.8028 -0.0205 -0.0085 -0.0542  0.0327
                                           -0.0092  0.0001 -0.0001  0.0000  0.0011
                                            0.0000  0.0000  0.0167 -0.0112
    14. (1.98167) BD ( 1) C   5 - H  11  
                ( 62.50%)   0.7906* C   5 s( 29.85%)p 2.35( 70.10%)d 0.00(  0.05%)
                                            0.0003 -0.5461 -0.0139  0.0032  0.0013
                                           -0.3863 -0.0050  0.0038  0.7427  0.0097
                                           -0.0074  0.0003  0.0000  0.0000  0.0155
                                            0.0000  0.0000  0.0109  0.0121
                ( 37.50%)   0.6124* H  11 s(100.00%)
                                           -1.0000 -0.0026
    15. (1.98166) BD ( 1) C   6 - H  12  
                ( 62.50%)   0.7906* C   6 s( 29.85%)p 2.35( 70.10%)d 0.00(  0.05%)
                                            0.0003 -0.5462 -0.0139  0.0032  0.0013
                                            0.4500  0.0058 -0.0045  0.7059  0.0092
                                           -0.0070 -0.0007  0.0000  0.0000 -0.0172
                                            0.0000  0.0000  0.0080  0.0121
                ( 37.50%)   0.6124* H  12 s(100.00%)
                                           -1.0000 -0.0026
    16. (1.99910) CR ( 1) C   1           s(100.00%)p 0.00(  0.00%)
                                            1.0000  0.0002  0.0000  0.0000  0.0000
                                           -0.0002  0.0000  0.0000  0.0000  0.0000
                                            0.0000  0.0000  0.0000  0.0000  0.0000
                                            0.0000  0.0000  0.0000  0.0000
    17. (1.99910) CR ( 1) C   2           s(100.00%)p 0.00(  0.00%)
                                            1.0000  0.0002  0.0000  0.0000  0.0000
                                           -0.0001  0.0000  0.0000  0.0002  0.0000
                                            0.0000  0.0000  0.0000  0.0000  0.0000
                                            0.0000  0.0000  0.0000  0.0000
    18. (1.99910) CR ( 1) C   3           s(100.00%)p 0.00(  0.00%)
                                            1.0000  0.0002  0.0000  0.0000  0.0000
                                            0.0001  0.0000  0.0000  0.0002  0.0000
                                            0.0000  0.0000  0.0000  0.0000  0.0000
                                            0.0000  0.0000  0.0000  0.0000
    19. (1.99910) CR ( 1) C   4           s(100.00%)p 0.00(  0.00%)
                                            1.0000  0.0002  0.0000  0.0000  0.0000
                                            0.0002  0.0000  0.0000  0.0000  0.0000
                                            0.0000  0.0000  0.0000  0.0000  0.0000
                                            0.0000  0.0000  0.0000  0.0000
    20. (1.99910) CR ( 1) C   5           s(100.00%)p 0.00(  0.00%)
                                            1.0000  0.0002  0.0000  0.0000  0.0000
                                            0.0001  0.0000  0.0000 -0.0002  0.0000
                                            0.0000  0.0000  0.0000  0.0000  0.0000
                                            0.0000  0.0000  0.0000  0.0000
    21. (1.99910) CR ( 1) C   6           s(100.00%)p 0.00(  0.00%)
                                            1.0000  0.0002  0.0000  0.0000  0.0000
                                           -0.0001  0.0000  0.0000 -0.0002  0.0000
                                            0.0000  0.0000  0.0000  0.0000  0.0000
                                            0.0000  0.0000  0.0000  0.0000
    22. (0.00495) RY*( 1) C   1           s(  1.75%)p51.64( 90.47%)d 4.44(  7.78%)
                                            0.0000 -0.0115  0.1232  0.0336  0.0328
                                           -0.0253  0.9486 -0.0490  0.0011 -0.0417
                                            0.0022 -0.0001  0.0010  0.0013  0.0242
                                            0.0001  0.0003 -0.2750  0.0392
    23. (0.00292) RY*( 2) C   1           s(  0.00%)p 1.00( 98.50%)d 0.02(  1.50%)
                                            0.0000  0.0000  0.0000  0.0001  0.0000
                                            0.0020  0.0430 -0.0069  0.0452  0.9779
                                           -0.1577  0.0000  0.0011  0.0000  0.1218
                                           -0.0001 -0.0001  0.0107  0.0000
    24. (0.00088) RY*( 3) C   1           s(  0.00%)p 1.00( 92.44%)d 0.08(  7.56%)
                                            0.0000  0.0000  0.0061  0.0034  0.0006
                                            0.0001  0.0001 -0.0020  0.0000  0.0009
                                           -0.0002  0.0248 -0.8705 -0.4073  0.0003
                                            0.2405 -0.1332 -0.0013  0.0000
    25. (0.00057) RY*( 4) C   1           s(  0.00%)p 1.00(  1.42%)d69.58( 98.58%)
                                            0.0000  0.0000  0.0065  0.0008  0.0008
                                            0.0002 -0.0008  0.0005  0.0000  0.0003
                                           -0.0001  0.0125 -0.1072 -0.0502 -0.0002
                                            0.0740  0.9901  0.0005 -0.0003
    26. (0.00041) RY*( 5) C   1           s( 96.53%)p 0.03(  2.99%)d 0.00(  0.48%)
                                            0.0000  0.0046  0.9524  0.2402  0.0211
                                            0.0223 -0.1114  0.1301 -0.0010  0.0049
                                           -0.0057 -0.0001  0.0065  0.0019 -0.0034
                                           -0.0027 -0.0057  0.0399 -0.0559
    27. (0.00013) RY*( 6) C   1           s(  0.08%)p99.99( 17.57%)d99.99( 82.35%)
                                            0.0000  0.0000 -0.0082  0.0269 -0.0063
                                           -0.0016 -0.0102 -0.0078 -0.0297 -0.1730
                                           -0.3804  0.0000 -0.0007  0.0013  0.9050
                                           -0.0006  0.0002  0.0668 -0.0083
    28. (0.00012) RY*( 7) C   1           s( 72.05%)p 0.10(  7.53%)d 0.28( 20.43%)
                                            0.0000 -0.0008 -0.2391  0.7926 -0.1872
                                           -0.0086 -0.0765  0.2631  0.0014  0.0092
                                            0.0015  0.0000  0.0010  0.0003  0.0024
                                            0.0004  0.0011 -0.3789 -0.2464
    29. (0.00003) RY*( 8) C   1           s(  0.02%)p99.99( 83.94%)d99.99( 16.05%)
    30. (0.00003) RY*( 9) C   1           s( 33.31%)p 1.01( 33.62%)d 0.99( 33.07%)
    31. (0.00001) RY*(10) C   1           s( 33.97%)p 1.69( 57.30%)d 0.26(  8.73%)
    32. (0.00000) RY*(11) C   1           s(  0.00%)p 1.00(  6.18%)d15.17( 93.82%)
    33. (0.00000) RY*(12) C   1           s(  0.00%)p 1.00(100.00%)d 0.00(  0.00%)
    34. (0.00001) RY*(13) C   1           s( 14.51%)p 0.54(  7.89%)d 5.35( 77.60%)
    35. (0.00000) RY*(14) C   1           s( 47.81%)p 0.01(  0.29%)d 1.09( 51.89%)
    36. (0.00495) RY*( 1) C   2           s(  1.75%)p51.59( 90.47%)d 4.43(  7.78%)
                                            0.0000 -0.0115  0.1233  0.0337  0.0328
                                           -0.0117  0.4382 -0.0228  0.0224 -0.8424
                                            0.0437  0.0001 -0.0017 -0.0002  0.2261
                                            0.0003  0.0000  0.1585  0.0392
    37. (0.00292) RY*( 2) C   2           s(  0.00%)p 1.00( 98.50%)d 0.02(  1.50%)
                                            0.0000  0.0000  0.0000  0.0000  0.0000
                                            0.0401  0.8683 -0.1402  0.0209  0.4517
                                           -0.0729  0.0000 -0.0007 -0.0001 -0.0702
                                           -0.0007 -0.0005  0.1001  0.0000
    38. (0.00088) RY*( 3) C   2           s(  0.00%)p 1.00( 92.49%)d 0.08(  7.51%)
                                            0.0000  0.0000  0.0005  0.0002 -0.0001
                                           -0.0001 -0.0016 -0.0009 -0.0001  0.0009
                                           -0.0013  0.0249 -0.8709 -0.4072 -0.0012
                                            0.2204 -0.1629  0.0009 -0.0007
    39. (0.00057) RY*( 4) C   2           s(  0.01%)p93.80(  1.37%)d99.99( 98.61%)
                                            0.0000  0.0001  0.0115  0.0037  0.0009
                                            0.0001 -0.0005 -0.0011 -0.0002  0.0018
                                           -0.0036 -0.0124  0.1049  0.0503 -0.0002
                                            0.8669  0.4844  0.0013 -0.0005
    40. (0.00041) RY*( 5) C   2           s( 96.52%)p 0.03(  2.99%)d 0.01(  0.49%)
                                            0.0000  0.0046  0.9523  0.2404  0.0211
                                            0.0103 -0.0515  0.0602 -0.0198  0.0989
                                           -0.1156  0.0001 -0.0006 -0.0002 -0.0329
                                           -0.0110 -0.0057 -0.0229 -0.0559
    41. (0.00012) RY*( 6) C   2           s( 71.92%)p 0.10(  7.54%)d 0.29( 20.54%)
                                            0.0000 -0.0008 -0.2390  0.7918 -0.1873
                                           -0.0054 -0.0438  0.1027  0.0070  0.0637
                                           -0.2425  0.0000 -0.0009  0.0018  0.2807
                                           -0.0019  0.0007  0.2567 -0.2462
    42. (0.00013) RY*( 7) C   2           s(  0.21%)p83.07( 17.59%)d99.99( 82.20%)
                                            0.0000  0.0000 -0.0129  0.0430 -0.0101
                                            0.0262  0.1518  0.3441  0.0142  0.0836
                                            0.1629  0.0000  0.0009 -0.0043  0.5370
                                            0.0033 -0.0018 -0.7304 -0.0133
    43. (0.00003) RY*( 8) C   2           s( 33.22%)p 1.02( 33.73%)d 0.99( 33.04%)
    44. (0.00003) RY*( 9) C   2           s(  0.09%)p99.99( 83.79%)d99.99( 16.12%)
    45. (0.00001) RY*(10) C   2           s( 14.91%)p 0.51(  7.58%)d 5.20( 77.51%)
    46. (0.00001) RY*(11) C   2           s( 34.05%)p 1.69( 57.53%)d 0.25(  8.41%)
    47. (0.00000) RY*(12) C   2           s(  0.00%)p 1.00(  6.19%)d15.17( 93.81%)
    48. (0.00000) RY*(13) C   2           s(  0.00%)p 1.00(100.00%)d 0.00(  0.00%)
    49. (0.00000) RY*(14) C   2           s( 47.33%)p 0.01(  0.37%)d 1.11( 52.30%)
    50. (0.00495) RY*( 1) C   3           s(  1.75%)p51.59( 90.47%)d 4.43(  7.78%)
                                            0.0000 -0.0115  0.1233  0.0336  0.0328
                                            0.0136 -0.5103  0.0265  0.0213 -0.8007
                                            0.0415  0.0000  0.0005 -0.0001 -0.2503
                                            0.0001  0.0000  0.1166  0.0392
    51. (0.00292) RY*( 2) C   3           s(  0.00%)p 1.00( 98.50%)d 0.02(  1.50%)
                                            0.0000  0.0000  0.0000 -0.0001  0.0000
                                            0.0381  0.8254 -0.1332 -0.0243 -0.5261
                                            0.0849  0.0000 -0.0009 -0.0001 -0.0516
                                            0.0000 -0.0002 -0.1109  0.0000
    52. (0.00088) RY*( 3) C   3           s(  0.00%)p 1.00( 92.48%)d 0.08(  7.52%)
                                            0.0000  0.0000  0.0022  0.0009  0.0002
                                            0.0000  0.0012 -0.0002 -0.0001  0.0002
                                           -0.0005 -0.0249  0.8708  0.4072 -0.0002
                                            0.2341  0.1428  0.0002  0.0000
    53. (0.00057) RY*( 4) C   3           s(  0.00%)p 1.00(  1.38%)d71.70( 98.62%)
                                            0.0000  0.0001  0.0052  0.0030 -0.0001
                                           -0.0001  0.0005 -0.0004 -0.0001  0.0008
                                           -0.0020  0.0124 -0.1052 -0.0503 -0.0006
                                            0.8210 -0.5587  0.0004  0.0004
    54. (0.00041) RY*( 5) C   3           s( 96.53%)p 0.03(  2.99%)d 0.00(  0.48%)
                                            0.0000  0.0046  0.9524  0.2403  0.0211
                                           -0.0120  0.0600 -0.0701 -0.0188  0.0940
                                           -0.1098  0.0000 -0.0015 -0.0005  0.0363
                                           -0.0056  0.0029 -0.0168 -0.0559
    55. (0.00012) RY*( 6) C   3           s( 71.50%)p 0.11(  7.60%)d 0.29( 20.90%)
                                            0.0000 -0.0008 -0.2382  0.7896 -0.1866
                                            0.0023  0.0274 -0.1708  0.0088  0.0732
                                           -0.2016  0.0000 -0.0001 -0.0001 -0.3770
                                           -0.0017  0.0009  0.0813 -0.2455
    56. (0.00013) RY*( 7) C   3           s(  0.64%)p27.41( 17.51%)d99.99( 81.85%)
                                            0.0000 -0.0001 -0.0226  0.0746 -0.0177
                                            0.0255  0.1495  0.3064 -0.0153 -0.0867
                                           -0.2246  0.0000  0.0000 -0.0002  0.3493
                                           -0.0007  0.0001  0.8342 -0.0232
    57. (0.00003) RY*( 8) C   3           s( 33.07%)p 1.03( 33.95%)d 1.00( 32.98%)
    58. (0.00003) RY*( 9) C   3           s(  0.23%)p99.99( 83.60%)d70.26( 16.17%)
    59. (0.00001) RY*(10) C   3           s( 15.01%)p 0.50(  7.51%)d 5.16( 77.48%)
    60. (0.00001) RY*(11) C   3           s( 34.04%)p 1.69( 57.57%)d 0.25(  8.39%)
    61. (0.00000) RY*(12) C   3           s(  0.00%)p 1.00(  6.19%)d15.16( 93.81%)
    62. (0.00000) RY*(13) C   3           s(  0.00%)p 1.00(100.00%)d 0.00(  0.00%)
    63. (0.00000) RY*(14) C   3           s( 47.25%)p 0.01(  0.39%)d 1.11( 52.36%)
    64. (0.00495) RY*( 1) C   4           s(  1.75%)p51.63( 90.47%)d 4.44(  7.78%)
                                            0.0000 -0.0115  0.1232  0.0336  0.0328
                                            0.0253 -0.9486  0.0490 -0.0011  0.0417
                                           -0.0022  0.0000 -0.0004 -0.0003  0.0242
                                            0.0000 -0.0002 -0.2750  0.0392
    65. (0.00292) RY*( 2) C   4           s(  0.00%)p 1.00( 98.50%)d 0.02(  1.50%)
                                            0.0000  0.0000  0.0000 -0.0001  0.0000
                                            0.0020  0.0430 -0.0069  0.0452  0.9779
                                           -0.1577  0.0001 -0.0011 -0.0001 -0.1218
                                           -0.0001  0.0003 -0.0107  0.0000
    66. (0.00088) RY*( 3) C   4           s(  0.00%)p 1.00( 92.43%)d 0.08(  7.57%)
                                            0.0000  0.0000  0.0049  0.0019  0.0007
                                           -0.0001  0.0001 -0.0009  0.0000  0.0010
                                            0.0000 -0.0248  0.8705  0.4073  0.0001
                                            0.2513  0.1121 -0.0001 -0.0006
    67. (0.00057) RY*( 4) C   4           s(  0.00%)p 1.00(  1.43%)d69.04( 98.57%)
                                            0.0000  0.0000  0.0035 -0.0003  0.0006
                                           -0.0001  0.0004 -0.0001  0.0000  0.0004
                                           -0.0003 -0.0125  0.1077  0.0502 -0.0003
                                           -0.0128 -0.9927  0.0006 -0.0004
    68. (0.00041) RY*( 5) C   4           s( 96.53%)p 0.03(  2.99%)d 0.00(  0.47%)
                                            0.0000  0.0046  0.9524  0.2402  0.0211
                                           -0.0223  0.1114 -0.1301  0.0010 -0.0049
                                            0.0057  0.0001 -0.0049 -0.0024 -0.0034
                                           -0.0016  0.0028  0.0399 -0.0559
    69. (0.00013) RY*( 6) C   4           s(  0.08%)p99.99( 17.57%)d99.99( 82.35%)
                                            0.0000  0.0000 -0.0082  0.0269 -0.0063
                                            0.0016  0.0102  0.0078  0.0297  0.1730
                                            0.3804  0.0000 -0.0005  0.0005  0.9050
                                            0.0001 -0.0003  0.0668 -0.0083
    70. (0.00012) RY*( 7) C   4           s( 72.05%)p 0.10(  7.53%)d 0.28( 20.43%)
                                            0.0000 -0.0008 -0.2391  0.7926 -0.1872
                                            0.0086  0.0765 -0.2631 -0.0014 -0.0092
                                           -0.0015  0.0000  0.0003 -0.0016  0.0024
                                           -0.0005 -0.0013 -0.3789 -0.2464
    71. (0.00003) RY*( 8) C   4           s(  0.02%)p99.99( 83.94%)d99.99( 16.05%)
    72. (0.00003) RY*( 9) C   4           s( 33.31%)p 1.01( 33.62%)d 0.99( 33.08%)
    73. (0.00001) RY*(10) C   4           s( 33.94%)p 1.69( 57.32%)d 0.26(  8.74%)
    74. (0.00000) RY*(11) C   4           s(  0.00%)p 1.00(  6.18%)d15.17( 93.82%)
    75. (0.00000) RY*(12) C   4           s(  0.00%)p 1.00(100.00%)d 0.00(  0.00%)
    76. (0.00001) RY*(13) C   4           s( 14.53%)p 0.54(  7.87%)d 5.34( 77.59%)
    77. (0.00000) RY*(14) C   4           s( 47.82%)p 0.01(  0.29%)d 1.09( 51.89%)
    78. (0.00495) RY*( 1) C   5           s(  1.75%)p51.59( 90.47%)d 4.43(  7.78%)
                                            0.0000 -0.0115  0.1233  0.0337  0.0328
                                            0.0117 -0.4382  0.0228 -0.0224  0.8424
                                           -0.0437  0.0000  0.0002 -0.0003  0.2261
                                            0.0002  0.0003  0.1585  0.0392
    79. (0.00292) RY*( 2) C   5           s(  0.00%)p 1.00( 98.51%)d 0.02(  1.49%)
                                            0.0000  0.0000  0.0000  0.0000  0.0000
                                            0.0401  0.8683 -0.1402  0.0209  0.4517
                                           -0.0729  0.0000  0.0003 -0.0001  0.0702
                                           -0.0002  0.0000 -0.1001  0.0000
    80. (0.00088) RY*( 3) C   5           s(  0.00%)p 1.00( 92.38%)d 0.08(  7.62%)
                                            0.0000  0.0000 -0.0001  0.0002 -0.0002
                                            0.0001  0.0000  0.0007  0.0000 -0.0003
                                           -0.0009 -0.0248  0.8702  0.4073  0.0003
                                            0.0025 -0.2760  0.0007  0.0009
    81. (0.00056) RY*( 4) C   5           s(  0.01%)p99.99(  1.48%)d99.99( 98.51%)
                                            0.0000  0.0001  0.0106  0.0034  0.0007
                                           -0.0001  0.0009 -0.0008  0.0002 -0.0016
                                            0.0024 -0.0125  0.1100  0.0501  0.0008
                                            0.8946  0.4298 -0.0008  0.0003
    82. (0.00041) RY*( 5) C   5           s( 96.52%)p 0.03(  2.99%)d 0.01(  0.49%)
                                            0.0000  0.0046  0.9524  0.2404  0.0211
                                           -0.0103  0.0515 -0.0601  0.0198 -0.0989
                                            0.1156  0.0001 -0.0016  0.0004 -0.0329
                                           -0.0101 -0.0051 -0.0229 -0.0559
    83. (0.00012) RY*( 6) C   5           s( 71.92%)p 0.10(  7.54%)d 0.29( 20.54%)
                                            0.0000 -0.0008 -0.2390  0.7918 -0.1873
                                            0.0054  0.0438 -0.1027 -0.0070 -0.0637
                                            0.2425  0.0000 -0.0008  0.0013  0.2807
                                           -0.0006 -0.0005  0.2568 -0.2462
    84. (0.00013) RY*( 7) C   5           s(  0.21%)p83.07( 17.59%)d99.99( 82.20%)
                                            0.0000  0.0000 -0.0129  0.0430 -0.0101
                                           -0.0262 -0.1518 -0.3441 -0.0142 -0.0836
                                           -0.1629  0.0000 -0.0007  0.0016  0.5370
                                           -0.0004 -0.0013 -0.7304 -0.0133
    85. (0.00003) RY*( 8) C   5           s( 33.22%)p 1.02( 33.73%)d 0.99( 33.04%)
    86. (0.00003) RY*( 9) C   5           s(  0.09%)p99.99( 83.79%)d99.99( 16.12%)
    87. (0.00001) RY*(10) C   5           s( 14.91%)p 0.51(  7.58%)d 5.20( 77.51%)
    88. (0.00001) RY*(11) C   5           s( 34.05%)p 1.69( 57.53%)d 0.25(  8.41%)
    89. (0.00000) RY*(12) C   5           s(  0.00%)p 1.00(  6.19%)d15.17( 93.81%)
    90. (0.00000) RY*(13) C   5           s(  0.00%)p 1.00(100.00%)d 0.00(  0.00%)
    91. (0.00000) RY*(14) C   5           s( 47.33%)p 0.01(  0.37%)d 1.11( 52.30%)
    92. (0.00495) RY*( 1) C   6           s(  1.75%)p51.59( 90.47%)d 4.43(  7.78%)
                                            0.0000 -0.0115  0.1233  0.0336  0.0328
                                           -0.0136  0.5103 -0.0265 -0.0213  0.8008
                                           -0.0415  0.0001 -0.0014  0.0003 -0.2503
                                            0.0003 -0.0004  0.1166  0.0392
    93. (0.00292) RY*( 2) C   6           s(  0.00%)p 1.00( 98.50%)d 0.02(  1.50%)
                                            0.0000  0.0000  0.0000  0.0001  0.0000
                                            0.0381  0.8254 -0.1332 -0.0243 -0.5261
                                            0.0849 -0.0001  0.0003 -0.0001  0.0516
                                           -0.0006  0.0005  0.1109  0.0000
    94. (0.00088) RY*( 3) C   6           s(  0.00%)p 1.00( 92.38%)d 0.08(  7.62%)
                                            0.0000  0.0000  0.0006 -0.0005  0.0005
                                            0.0001  0.0008  0.0012  0.0000  0.0008
                                            0.0005 -0.0248  0.8703  0.4072 -0.0004
                                           -0.0269 -0.2746 -0.0012 -0.0004
    95. (0.00056) RY*( 4) C   6           s(  0.02%)p73.34(  1.47%)d99.99( 98.51%)
                                            0.0000  0.0001  0.0137  0.0032  0.0013
                                            0.0001 -0.0011 -0.0012  0.0003 -0.0022
                                            0.0039  0.0125 -0.1097 -0.0501  0.0003
                                            0.8534 -0.5067  0.0003 -0.0009
    96. (0.00041) RY*( 5) C   6           s( 96.51%)p 0.03(  2.99%)d 0.01(  0.49%)
                                            0.0000  0.0046  0.9523  0.2403  0.0211
                                            0.0120 -0.0600  0.0701  0.0188 -0.0940
                                            0.1098  0.0000  0.0016 -0.0004  0.0363
                                           -0.0124  0.0075 -0.0168 -0.0559
    97. (0.00012) RY*( 6) C   6           s( 71.50%)p 0.11(  7.60%)d 0.29( 20.90%)
                                            0.0000 -0.0008 -0.2382  0.7896 -0.1866
                                           -0.0023 -0.0274  0.1708 -0.0088 -0.0732
                                            0.2016  0.0000  0.0001 -0.0001 -0.3770
                                           -0.0003 -0.0007  0.0813 -0.2455
    98. (0.00013) RY*( 7) C   6           s(  0.64%)p27.43( 17.51%)d99.99( 81.85%)
                                            0.0000 -0.0001 -0.0226  0.0746 -0.0177
                                           -0.0255 -0.1495 -0.3064  0.0153  0.0867
                                            0.2246  0.0000 -0.0014  0.0050  0.3493
                                           -0.0029 -0.0022  0.8342 -0.0232
    99. (0.00003) RY*( 8) C   6           s( 33.07%)p 1.03( 33.95%)d 1.00( 32.97%)
   100. (0.00003) RY*( 9) C   6           s(  0.23%)p99.99( 83.59%)d70.30( 16.18%)
   101. (0.00001) RY*(10) C   6           s( 15.01%)p 0.50(  7.51%)d 5.16( 77.48%)
   102. (0.00001) RY*(11) C   6           s( 34.04%)p 1.69( 57.57%)d 0.25(  8.38%)
   103. (0.00000) RY*(12) C   6           s(  0.00%)p 1.00(  6.19%)d15.16( 93.81%)
   104. (0.00000) RY*(13) C   6           s(  0.00%)p 1.00(100.00%)d 0.00(  0.00%)
   105. (0.00000) RY*(14) C   6           s( 47.25%)p 0.01(  0.39%)d 1.11( 52.36%)
   106. (0.00088) RY*( 1) H   7           s(100.00%)
                                           -0.0026  1.0000
   107. (0.00088) RY*( 1) H   8           s(100.00%)
                                           -0.0026  1.0000
   108. (0.00088) RY*( 1) H   9           s(100.00%)
                                           -0.0026  1.0000
   109. (0.00088) RY*( 1) H  10           s(100.00%)
                                           -0.0026  1.0000
   110. (0.00088) RY*( 1) H  11           s(100.00%)
                                           -0.0026  1.0000
   111. (0.00088) RY*( 1) H  12           s(100.00%)
                                           -0.0026  1.0000
   112. (0.01688) BD*( 1) C   1 - C   2  
                ( 50.00%)   0.7071* C   1 s( 35.06%)p 1.85( 64.90%)d 0.00(  0.04%)
                                            0.0001 -0.5920  0.0091 -0.0016 -0.0007
                                           -0.4164 -0.0150  0.0124 -0.6885  0.0356
                                            0.0016  0.0001  0.0001  0.0000 -0.0161
                                            0.0000  0.0000  0.0047  0.0112
                ( 50.00%)  -0.7071* C   2 s( 35.06%)p 1.85( 64.90%)d 0.00(  0.04%)
                                            0.0001 -0.5920  0.0091 -0.0016 -0.0007
                                            0.4484 -0.0386  0.0038  0.6681 -0.0014
                                           -0.0120  0.0002  0.0000  0.0000 -0.0140
                                            0.0000  0.0000  0.0093  0.0112
   113. (0.01688) BD*( 1) C   1 - C   6  
                ( 50.00%)   0.7071* C   1 s( 35.06%)p 1.85( 64.90%)d 0.00(  0.04%)
                                            0.0001 -0.5920  0.0091 -0.0016 -0.0007
                                           -0.3544 -0.0181  0.0122  0.7223 -0.0341
                                           -0.0027  0.0007  0.0000  0.0000  0.0150
                                            0.0000  0.0000  0.0074  0.0112
                ( 50.00%)  -0.7071* C   6 s( 35.06%)p 1.85( 64.90%)d 0.00(  0.04%)
                                            0.0001 -0.5920  0.0091 -0.0016 -0.0007
                                            0.3880 -0.0383  0.0048 -0.7048  0.0048
                                            0.0116  0.0001  0.0000  0.0000  0.0121
                                            0.0000  0.0000  0.0116  0.0112
   114. (0.33255) BD*( 2) C   1 - C   6  
                ( 50.00%)   0.7071* C   1 s(  0.00%)p 1.00( 99.96%)d 0.00(  0.04%)
                                            0.0000 -0.0008 -0.0001 -0.0001  0.0000
                                            0.0022  0.0002  0.0001 -0.0005  0.0000
                                            0.0000  0.9993  0.0254  0.0203  0.0000
                                            0.0176 -0.0101  0.0000  0.0000
                ( 50.00%)  -0.7071* C   6 s(  0.00%)p 1.00( 99.96%)d 0.00(  0.04%)
                                            0.0000 -0.0004 -0.0001  0.0000  0.0000
                                            0.0002  0.0001  0.0000  0.0005 -0.0001
                                            0.0000  0.9993  0.0254  0.0204  0.0000
                                            0.0018  0.0202  0.0000  0.0000
   115. (0.01286) BD*( 1) C   1 - H   7  
                ( 37.50%)   0.6124* C   1 s( 29.85%)p 2.35( 70.10%)d 0.00(  0.05%)
                                           -0.0003  0.5462  0.0139 -0.0032 -0.0013
                                           -0.8363 -0.0109  0.0083  0.0367  0.0005
                                           -0.0004  0.0023  0.0000 -0.0001 -0.0017
                                           -0.0002  0.0000  0.0189 -0.0121
                ( 62.50%)  -0.7906* H   7 s(100.00%)
                                            1.0000  0.0026
   116. (0.01688) BD*( 1) C   2 - C   3  
                ( 50.00%)   0.7071* C   2 s( 35.06%)p 1.85( 64.90%)d 0.00(  0.04%)
                                           -0.0001  0.5920 -0.0091  0.0016  0.0007
                                            0.8044 -0.0233 -0.0076 -0.0164 -0.0308
                                            0.0099 -0.0004  0.0000  0.0000 -0.0040
                                            0.0000  0.0000  0.0163 -0.0112
                ( 50.00%)  -0.7071* C   3 s( 35.06%)p 1.85( 64.90%)d 0.00(  0.04%)
                                           -0.0001  0.5920 -0.0091  0.0016  0.0007
                                           -0.8028  0.0205  0.0085  0.0542 -0.0327
                                            0.0092 -0.0002  0.0000  0.0000  0.0011
                                            0.0000  0.0000  0.0167 -0.0112
   117. (0.33258) BD*( 2) C   2 - C   3  
                ( 50.00%)   0.7071* C   2 s(  0.00%)p 1.00( 99.96%)d 0.00(  0.04%)
                                            0.0000 -0.0004  0.0000  0.0000  0.0000
                                           -0.0003  0.0000  0.0000  0.0001  0.0000
                                            0.0000 -0.9993 -0.0254 -0.0204  0.0000
                                           -0.0166  0.0116  0.0000  0.0000
                ( 50.00%)  -0.7071* C   3 s(  0.00%)p 1.00( 99.96%)d 0.00(  0.04%)
                                            0.0000 -0.0003  0.0000  0.0000  0.0000
                                            0.0000  0.0000  0.0000 -0.0002  0.0000
[...]
    R2        2.64530   0.00002   0.00000   0.00003   0.00003   2.64532
    R3        2.05451   0.00002   0.00000   0.00006   0.00006   2.05457
    R4        2.64528  -0.00004   0.00000  -0.00008  -0.00008   2.64519
    R5        2.05452   0.00002   0.00000   0.00004   0.00004   2.05456
    R6        2.64530   0.00002   0.00000   0.00003   0.00003   2.64532
    R7        2.05450   0.00002   0.00000   0.00005   0.00005   2.05455
    R8        2.64524   0.00000   0.00000  -0.00001  -0.00001   2.64523
    R9        2.05451   0.00002   0.00000   0.00006   0.00006   2.05457
   R10        2.64528  -0.00004   0.00000  -0.00008  -0.00008   2.64519
   R11        2.05452   0.00002   0.00000   0.00004   0.00004   2.05456
   R12        2.05450   0.00002   0.00000   0.00005   0.00005   2.05455
    A1        2.09435   0.00001   0.00000   0.00005   0.00005   2.09441
    A2        2.09444  -0.00002   0.00000  -0.00011  -0.00011   2.09432
    A3        2.09439   0.00000   0.00000   0.00006   0.00006   2.09446
    A4        2.09446  -0.00001   0.00000  -0.00003  -0.00003   2.09443
    A5        2.09435   0.00002   0.00000   0.00010   0.00010   2.09445
    A6        2.09437  -0.00001   0.00000  -0.00007  -0.00007   2.09430
    A7        2.09437   0.00000   0.00000  -0.00002  -0.00002   2.09434
    A8        2.09441   0.00000   0.00000   0.00005   0.00005   2.09446
    A9        2.09441   0.00000   0.00000  -0.00003  -0.00003   2.09438
   A10        2.09435   0.00001   0.00000   0.00005   0.00005   2.09441
   A11        2.09439   0.00000   0.00000   0.00006   0.00006   2.09446
   A12        2.09444  -0.00002   0.00000  -0.00011  -0.00011   2.09432
   A13        2.09446  -0.00001   0.00000  -0.00003  -0.00003   2.09443
   A14        2.09435   0.00002   0.00000   0.00010   0.00010   2.09445
   A15        2.09437  -0.00001   0.00000  -0.00007  -0.00007   2.09430
   A16        2.09437   0.00000   0.00000  -0.00002  -0.00002   2.09434
   A17        2.09441   0.00000   0.00000  -0.00003  -0.00003   2.09438
   A18        2.09441   0.00000   0.00000   0.00005   0.00005   2.09446
    D1       -0.00004   0.00000   0.00000   0.00003   0.00003   0.00000
    D2        3.14141   0.00000   0.00000   0.00019   0.00019  -3.14159
    D3        3.14115   0.00001   0.00000   0.00044   0.00044   3.14159
    D4       -0.00059   0.00001   0.00000   0.00059   0.00059   0.00000
    D5        0.00011   0.00000   0.00000  -0.00011  -0.00011   0.00000
    D6       -3.14158   0.00000   0.00000  -0.00002  -0.00002  -3.14159
    D7       -3.14108  -0.00001   0.00000  -0.00051  -0.00051  -3.14159
    D8        0.00042  -0.00001   0.00000  -0.00042  -0.00042   0.00000
    D9       -0.00003   0.00000   0.00000   0.00003   0.00003   0.00000
   D10        3.14156   0.00000   0.00000   0.00003   0.00003  -3.14159
   D11       -3.14147   0.00000   0.00000  -0.00012  -0.00012   3.14159
   D12        0.00012   0.00000   0.00000  -0.00012  -0.00012   0.00000
   D13        0.00002   0.00000   0.00000  -0.00002  -0.00002   0.00000
   D14       -3.14153   0.00000   0.00000  -0.00006  -0.00006   3.14159
   D15       -3.14157   0.00000   0.00000  -0.00002  -0.00002   3.14159
   D16        0.00006   0.00000   0.00000  -0.00006  -0.00006   0.00000
   D17        0.00006   0.00000   0.00000  -0.00006  -0.00006   0.00000
   D18        3.14146   0.00000   0.00000   0.00013   0.00013   3.14159
   D19       -3.14158   0.00000   0.00000  -0.00001  -0.00001  -3.14159
   D20       -0.00017   0.00000   0.00000   0.00017   0.00017   0.00000
   D21       -0.00012   0.00000   0.00000   0.00012   0.00012   0.00000
   D22        3.14156   0.00000   0.00000   0.00003   0.00003   3.14159
   D23       -3.14153   0.00000   0.00000  -0.00006  -0.00006  -3.14159
   D24        0.00016   0.00000   0.00000  -0.00016  -0.00016   0.00000
         Item               Value     Threshold  Converged?
 Maximum Force            0.000043     0.000450     YES
 RMS     Force            0.000013     0.000300     YES
 Maximum Displacement     0.000637     0.001800     YES
 RMS     Displacement     0.000122     0.001200     YES
 Predicted change in Energy=-2.458901D-08
 Optimization completed.
    -- Stationary point found.
                           ----------------------------
                           !   Optimized Parameters   !
                           ! (Angstroms and Degrees)  !
 --------------------------                            --------------------------
 ! Name  Definition              Value          Derivative Info.                !
 --------------------------------------------------------------------------------
 ! R1    R(1,2)                  1.3998         -DE/DX =    0.0                 !
 ! R2    R(1,6)                  1.3998         -DE/DX =    0.0                 !
 ! R3    R(1,7)                  1.0872         -DE/DX =    0.0                 !
 ! R4    R(2,3)                  1.3998         -DE/DX =    0.0                 !
 ! R5    R(2,8)                  1.0872         -DE/DX =    0.0                 !
 ! R6    R(3,4)                  1.3998         -DE/DX =    0.0                 !
 ! R7    R(3,9)                  1.0872         -DE/DX =    0.0                 !
 ! R8    R(4,5)                  1.3998         -DE/DX =    0.0                 !
 ! R9    R(4,10)                 1.0872         -DE/DX =    0.0                 !
 ! R10   R(5,6)                  1.3998         -DE/DX =    0.0                 !
 ! R11   R(5,11)                 1.0872         -DE/DX =    0.0                 !
 ! R12   R(6,12)                 1.0872         -DE/DX =    0.0                 !
 ! A1    A(2,1,6)              119.9976         -DE/DX =    0.0                 !
 ! A2    A(2,1,7)              120.0024         -DE/DX =    0.0                 !
 ! A3    A(6,1,7)              120.0            -DE/DX =    0.0                 !
 ! A4    A(1,2,3)              120.004          -DE/DX =    0.0                 !
 ! A5    A(1,2,8)              119.9974         -DE/DX =    0.0                 !
 ! A6    A(3,2,8)              119.9986         -DE/DX =    0.0                 !
 ! A7    A(2,3,4)              119.9984         -DE/DX =    0.0                 !
 ! A8    A(2,3,9)              120.0007         -DE/DX =    0.0                 !
 ! A9    A(4,3,9)              120.0009         -DE/DX =    0.0                 !
 ! A10   A(3,4,5)              119.9976         -DE/DX =    0.0                 !
 ! A11   A(3,4,10)             120.0            -DE/DX =    0.0                 !
 ! A12   A(5,4,10)             120.0024         -DE/DX =    0.0                 !
 ! A13   A(4,5,6)              120.004          -DE/DX =    0.0                 !
 ! A14   A(4,5,11)             119.9974         -DE/DX =    0.0                 !
 ! A15   A(6,5,11)             119.9986         -DE/DX =    0.0                 !
 ! A16   A(1,6,5)              119.9984         -DE/DX =    0.0                 !
 ! A17   A(1,6,12)             120.0009         -DE/DX =    0.0                 !
 ! A18   A(5,6,12)             120.0007         -DE/DX =    0.0                 !
 ! D1    D(6,1,2,3)             -0.002          -DE/DX =    0.0                 !
 ! D2    D(6,1,2,8)           -180.0106         -DE/DX =    0.0                 !
 ! D3    D(7,1,2,3)            179.9748         -DE/DX =    0.0                 !
 ! D4    D(7,1,2,8)             -0.0339         -DE/DX =    0.0                 !
 ! D5    D(2,1,6,5)              0.0063         -DE/DX =    0.0                 !
 ! D6    D(2,1,6,12)          -179.999          -DE/DX =    0.0                 !
 ! D7    D(7,1,6,5)           -179.9705         -DE/DX =    0.0                 !
 ! D8    D(7,1,6,12)             0.0242         -DE/DX =    0.0                 !
 ! D9    D(1,2,3,4)             -0.0016         -DE/DX =    0.0                 !
 ! D10   D(1,2,3,9)           -180.0016         -DE/DX =    0.0                 !
 ! D11   D(8,2,3,4)            180.007          -DE/DX =    0.0                 !
 ! D12   D(8,2,3,9)              0.007          -DE/DX =    0.0                 !
 ! D13   D(2,3,4,5)              0.001          -DE/DX =    0.0                 !
 ! D14   D(2,3,4,10)           180.0034         -DE/DX =    0.0                 !
 ! D15   D(9,3,4,5)            180.001          -DE/DX =    0.0                 !
 ! D16   D(9,3,4,10)             0.0034         -DE/DX =    0.0                 !
 ! D17   D(3,4,5,6)              0.0032         -DE/DX =    0.0                 !
 ! D18   D(3,4,5,11)           179.9927         -DE/DX =    0.0                 !
 ! D19   D(10,4,5,6)          -179.9991         -DE/DX =    0.0                 !
 ! D20   D(10,4,5,11)           -0.0097         -DE/DX =    0.0                 !
 ! D21   D(4,5,6,1)             -0.0069         -DE/DX =    0.0                 !
 ! D22   D(4,5,6,12)           179.9984         -DE/DX =    0.0                 !
 ! D23   D(11,5,6,1)          -179.9963         -DE/DX =    0.0                 !
 ! D24   D(11,5,6,12)            0.009          -DE/DX =    0.0                 !
 --------------------------------------------------------------------------------
 GradGradGradGradGradGradGradGradGradGradGradGradGradGradGradGradGradGrad

 1\1\GINC-DC1S6B3D\Freq\RB3LYP\6-31+G(d)\C6H6\CMSBO\06-Dec-2020\0\\#N G
 eom=AllCheck Guess=TCheck SCRF=Check GenChk RB3LYP/6-31+G(d) Freq\\sol
  opt\\0,1\C,0.1661691877,-1.3899457489,0.0009381356\C,-1.1205843771,-0
 .8388506426,0.000537307\C,-1.2867979937,0.5510673654,-0.0001733286\C,-
 0.1661691494,1.3899457086,-0.0004488426\C,1.1205843683,0.8388506616,-0
 .0000349007\C,1.2867980242,-0.5510674081,0.0005858628\H,0.2952320808,-
 2.4694578143,0.0019046487\H,-1.990939446,-1.4903837162,0.0006359546\H,
 -2.286218551,0.9790340976,-0.0005114781\H,-0.2952321382,2.469458065,-0
 .0009450351\H,1.9909394309,1.4903836531,-0.0003692263\H,2.2862185634,-
 0.9790342211,0.0008809026\\Version=ES64L-G09RevD.01\State=1-A\HF=-232.
 261885\RMSD=1.462e-09\RMSF=2.172e-05\ZeroPoint=0.1005627\Thermal=0.104
 9589\Dipole=0.,-0.0000002,0.0000646\DipoleDeriv=-0.0366658,-0.0179589,
 0.0000228,-0.0176417,0.108286,-0.0002498,0.0000529,-0.0005929,-0.17881
 02,0.0559485,0.0716183,-0.0000203,0.0705528,0.014269,-0.0000427,0.0001
 366,0.0001117,-0.1797757,0.0864451,-0.0532077,0.000052,-0.0525496,-0.0
 171779,-0.000106,0.000044,-0.0001026,-0.177236,-0.036666,-0.0179588,0.
 0000306,-0.0176417,0.1082862,-0.0001394,0.0000269,-0.00006,-0.1788103,
 0.0559486,0.0716184,-0.0000069,0.0705525,0.0142686,-0.0000941,-0.00012
 65,-0.0001713,-0.1797756,0.0864453,-0.0532077,0.000056,-0.0525498,-0.0
 171775,-0.000031,0.000033,0.0000172,-0.1772363,0.0852877,0.0287336,-0.
 0000252,0.0287527,-0.1557157,0.0002042,-0.0000439,0.0003857,0.1788209,
 -0.0706474,-0.1190198,0.000029,-0.1189169,0.0002759,0.0000755,-0.00003
 38,0.0000328,0.1788315,-0.1203682,0.0898343,-0.0000802,0.0898028,0.050
 0626,0.0000773,-0.0001012,0.000053,0.1781696,0.0852878,0.0287337,-0.00
 00253,0.0287527,-0.1557158,0.0001594,-0.000021,0.0001373,0.178821,-0.0
 706474,-0.1190198,0.0000359,-0.1189168,0.0002759,0.0000774,0.0001258,0
 .0001039,0.1788315,-0.1203683,0.0898344,-0.0000685,0.0898028,0.0500625
 ,0.0000691,-0.0000927,0.0000852,0.1781697\Polar=106.2602389,-0.0020093
 ,106.2236745,0.0048752,-0.0244541,54.6148348\PG=C01 [X(C6H6)]\NImag=0\
 \0.66217783,-0.00905758,0.73809467,0.00006768,-0.00043404,0.13435642,-
 0.30230884,0.10556984,-0.00008394,0.71118056,0.04286920,-0.16080018,0.
 00006614,0.03734271,0.68897111,-0.00005165,0.00006416,-0.06205442,0.00
 007812,-0.00026051,0.13425603,0.02067501,0.03450805,-0.00002234,-0.131
 92654,0.05560779,-0.00003445,0.72700314,0.08021085,-0.01297974,0.00001
 552,-0.00705411,-0.33130984,0.00013253,-0.02846001,0.67366351,-0.00004
 300,0.00001171,0.00660255,-0.00000170,0.00013551,-0.06256685,0.0000920
 6,-0.00026220,0.13468619,-0.06619653,-0.00785999,-0.00000033,0.0451091
 2,-0.06611876,0.00003661,-0.26047909,-0.06702121,0.00000382,0.66217800
 ,-0.00785999,-0.00150905,-0.00000594,-0.02042389,-0.03744397,0.0000188
 3,-0.12972843,-0.20292316,0.00005214,-0.00905765,0.73809492,-0.0000036
 2,-0.00000282,-0.00621542,0.00001516,0.00001390,0.00661746,0.00003802,
 0.00006012,-0.06264820,0.00005989,-0.00027937,0.13435623,0.04510912,-0
 .02042389,0.00001745,-0.02451025,0.03191129,-0.00001683,-0.05438505,-0
 .03702936,0.00001162,-0.30230898,0.10556993,-0.00007630,0.71118071,-0.
 06611875,-0.03744398,0.00001449,0.03191129,-0.04321063,0.00002155,0.00
 869719,0.06189714,-0.00002994,0.04286926,-0.16080020,0.00005361,0.0373
 4264,0.68897107,0.00003971,0.00002151,0.00661745,-0.00001974,0.0000210
 2,-0.00621873,-0.00000940,-0.00003355,0.00665420,-0.00004090,0.0000594
 7,-0.06205440,0.00000926,-0.00026811,0.13425602,-0.26047906,-0.1297283
 8,0.00005644,-0.05438506,0.00869718,-0.00000973,-0.01078201,-0.0238853
 4,0.00001348,0.02067500,0.03450806,-0.00001283,-0.13192655,0.05560777,
 -0.00003313,0.72700309,-0.06702118,-0.20292313,0.00008167,-0.03702936,
 0.06189715,-0.00002807,-0.02388534,-0.05695264,0.00002433,0.08021086,-
 0.01297973,0.00001701,-0.00705412,-0.33130979,0.00011403,-0.02846006,0
 .67366344,0.00002368,0.00006730,-0.06264821,0.00001089,-0.00002333,0.0
 0665419,0.00001111,0.00002078,-0.00616552,-0.00003655,0.00001525,0.006
 60255,-0.00000383,0.00012467,-0.06256683,0.00005509,-0.00027276,0.1346
 8619,-0.06393211,0.03278732,-0.00003096,0.00115832,0.03030523,-0.00002
 211,-0.00517244,0.00121999,-0.00000225,-0.00113727,-0.00020151,0.00000
 004,-0.00397460,-0.00248479,0.00000044,0.00734150,-0.02658261,0.000019
 15,0.06292456,0.03274503,-0.33507780,0.00025613,-0.00092219,-0.0080972
 7,0.00000829,0.00243932,0.00124672,0.00000648,-0.00020282,0.00050235,-
 0.00000092,-0.00370120,0.00004361,0.00000671,0.00470130,-0.01432411,0.
 00001322,-0.03533170,0.35533518,-0.00003407,0.00027204,-0.03700349,0.0
 0000460,0.00000431,0.00330854,-0.00000166,0.00000365,0.00724980,0.0000
 0009,-0.00000096,-0.00073617,-0.00000002,0.00000345,0.00724146,-0.0000
 0501,0.00000278,0.00329571,0.00003437,-0.00028056,0.02573892,-0.018355
 43,-0.01952261,0.00000586,-0.23885596,-0.13386529,0.00001928,0.0069261
 0,0.00426355,-0.00000166,0.00121786,0.00125784,-0.00000198,-0.00008303
 ,0.00080849,-0.00000032,-0.00364670,0.00388942,-0.00000420,0.00123765,
 0.00016773,0.00000117,0.25158026,0.01172437,0.01137956,-0.00000208,-0.
 13389275,-0.16000021,0.00002824,-0.02693844,-0.01386802,0.00000411,0.0
 0246923,-0.00514878,0.00000573,0.00081071,-0.00055540,0.00000017,0.002
 67230,-0.00029726,0.00000334,-0.00055879,0.00090973,-0.00000238,0.1443
 4094,0.16656824,-0.00000031,-0.00000615,0.00330370,0.00000965,0.000028
 47,-0.03702355,0.00001438,0.00000780,0.00330398,-0.00000002,0.00000728
 ,0.00724544,-0.00000139,0.00000210,-0.00073735,-0.00000397,0.00000242,
 0.00724766,0.00000110,-0.00000450,-0.00411445,-0.00002029,-0.00003413,
 0.02573993,0.00172094,0.00041399,-0.00000086,0.00054167,-0.00077452,-0
 .00000012,-0.29581049,0.10106384,-0.00008306,-0.01849151,0.01225690,-0
 .00000900,-0.00194540,-0.00429852,0.00000114,0.00025658,-0.00061501,0.
 00000028,-0.00009826,-0.00008386,0.00000010,0.00082538,0.00031405,0.00
 000052,0.31297852,-0.00080079,-0.00564889,0.00000737,0.03047436,-0.007
 50834,0.00000845,0.10099366,-0.10325153,0.00004494,-0.01895756,0.01155
 498,-0.00000686,-0.00308542,-0.00198602,0.00000422,-0.00060738,-0.0009
 0108,-0.00000006,0.00158015,-0.00053899,0.00000045,-0.00039859,0.00130
 144,-0.00000283,-0.10894705,0.10534814,0.00000014,0.00000601,0.0072448
 8,-0.00001607,0.00000690,0.00327733,-0.00008382,0.00004323,-0.03692746
 ,0.00000733,-0.00000219,0.00328726,0.00000017,0.00000399,0.00724588,0.
 00000001,-0.00000062,-0.00073207,-0.00000019,0.00000043,0.00020146,0.0
 0000123,-0.00000230,-0.00411444,0.00009061,-0.00005261,0.02569885,-0.0
 0113727,-0.00020151,0.00000011,-0.00397460,-0.00248479,-0.00000054,0.0
 0734150,-0.02658261,0.00001273,-0.06393212,0.03278736,-0.00001806,0.00
 115832,0.03030523,-0.00001365,-0.00517244,0.00121999,-0.00000185,0.000
 26595,0.00004609,0.00000011,0.00021909,-0.00139727,0.00000085,0.001167
 61,0.00061788,0.00000041,0.06292456,-0.00020283,0.00050235,-0.00000069
 ,-0.00370120,0.00004360,0.00000257,0.00470130,-0.01432410,0.00000862,0
 .03274507,-0.33507801,0.00013765,-0.00092220,-0.00809726,0.00000504,0.
 00243932,0.00124671,0.00000292,0.00004609,-0.00012548,-0.00000041,0.00
 026692,-0.00085687,0.00000064,-0.00012461,0.00098294,-0.00000228,-0.03
 533174,0.35533537,-0.00000018,-0.00000021,-0.00073618,-0.00000004,0.00
 000392,0.00724146,-0.00000197,0.00000519,0.00329571,-0.00001718,0.0001
 3538,-0.03700331,0.00000055,0.00000893,0.00330854,-0.00000184,0.000004
 08,0.00724981,0.00000017,-0.00000104,-0.00125461,-0.00000020,0.0000003
 0,0.00020165,0.00000070,-0.00000229,-0.00412882,0.00001998,-0.00015210
 ,0.02573875,0.00121787,0.00125784,-0.00000082,-0.00008303,0.00080849,-
 0.00000023,-0.00364670,0.00388942,-0.00000243,-0.01835543,-0.01952261,
 0.00000931,-0.23885597,-0.13386529,0.00006646,0.00692610,0.00426355,-0
 .00000168,0.00021909,0.00026692,-0.00000015,0.00001185,-0.00019298,0.0
 0000006,-0.00107707,-0.00101542,0.00000019,0.00123765,0.00016773,-0.00
 000003,0.25158026,0.00246923,-0.00514878,0.00000722,0.00081072,-0.0005
 5540,-0.00000002,0.00267230,-0.00029726,0.00000408,0.01172437,0.011379
 56,-0.00000370,-0.13389274,-0.16000019,0.00006044,-0.02693844,-0.01386
 801,0.00000743,-0.00139727,-0.00085687,0.00000024,-0.00019298,0.000128
 15,-0.00000066,0.00064861,0.00043943,0.00000011,-0.00055879,0.00090973
 ,-0.00000251,0.14434093,0.16656822,-0.00000131,0.00000512,0.00724545,0
 .00000031,-0.00000042,-0.00073735,-0.00000252,0.00000466,0.00724766,-0
 .00001008,-0.00000581,0.00330370,0.00007207,0.00006385,-0.03702357,0.0
 0001165,0.00000756,0.00330398,-0.00000002,0.00000042,0.00020165,0.0000
 0036,-0.00000059,-0.00125401,-0.00000041,-0.00000016,0.00020144,0.0000
 0071,-0.00000230,-0.00411446,-0.00007098,-0.00006966,0.02573995,-0.018
 49152,0.01225690,-0.00000828,-0.00194540,-0.00429853,0.00000162,0.0002
 5658,-0.00061501,0.00000039,0.00172094,0.00041399,-0.00000062,0.000541
 67,-0.00077451,0.00000013,-0.29581046,0.10106385,-0.00007209,0.0011676
 1,-0.00012461,0.00000045,-0.00107707,0.00064862,-0.00000056,-0.0000679
 8,0.00014617,0.,-0.00009826,-0.00008386,0.00000004,0.00082538,0.000314
 06,0.00000022,0.31297851,-0.01895756,0.01155498,-0.00000578,-0.0030854
 2,-0.00198602,0.00000399,-0.00060738,-0.00090108,0.00000022,-0.0008008
 0,-0.00564889,0.00000565,0.03047436,-0.00750834,0.00000905,0.10099367,
 -0.10325153,0.00004124,0.00061788,0.00098294,-0.00000261,-0.00101542,0
 .00043943,-0.00000043,0.00014617,0.00020792,-0.00000067,0.00158015,-0.
 00053899,0.00000035,-0.00039859,0.00130144,-0.00000269,-0.10894706,0.1
 0534815,0.00000292,-0.00000461,0.00328726,0.00000276,0.00000410,0.0072
 4588,0.00000059,0.00000227,-0.00073207,-0.00000268,0.00000591,0.007244
 88,-0.00001274,0.00000141,0.00327733,-0.00007017,0.00004757,-0.0369274
 6,0.00000027,-0.00000467,-0.00412882,0.00000076,-0.00000041,0.00020144
 ,0.00000011,-0.00000062,-0.00125431,-0.00000082,0.00000035,0.00020146,
 0.00000030,-0.00000297,-0.00411444,0.00007872,-0.00004833,0.02569884\\
 -0.00000691,-0.00003988,-0.00002613,-0.00001729,-0.00001596,0.00001220
 ,0.00000180,0.00006379,0.00000368,0.00000695,0.00003981,-0.00000748,0.
 00001722,0.00001603,0.00002196,-0.00000176,-0.00006377,-0.00001024,-0.
 00000472,0.00002159,0.00002181,0.00001268,0.00001034,-0.00000998,0.000
 02039,0.00000330,0.00000030,0.00000472,-0.00002158,0.00000122,-0.00001
 268,-0.00001035,-0.00000538,-0.00002039,-0.00000331,-0.00000196\\\@


 A MUSTACHE HAIR ACROSS A CHIP IS LIKE A REDWOOD
 TREE FALLING THROUGH A HOUSING PROJECT.
 - AN IBM MANAGER IN EAST FISHKILL, NEW YORK
   AS QUOTED IN "FROM SANDS TO CIRCUITS", IBM INNOVATION JANUARY 1985.
 Job cpu time:       0 days  0 hours  3 minutes 36.9 seconds.
 File lengths (MBytes):  RWF=     52 Int=      0 D2E=      0 Chk=      6 Scr=      1
 Normal termination of Gaussian 09 at Sun Dec  6 20:37:17 2020.
