 Entering Gaussian System, Link 0=g09
 Input=gas.com
 Output=gas.log
 Initial command:
 /apps/applications/gaussian/G09.D01/2/default/g09/l1.exe "/local/3135742.1.24core-128G.q/Gau-166294.inp" -scrdir="/local/3135742.1.24core-128G.q/"
 Entering Link 1 = /apps/applications/gaussian/G09.D01/2/default/g09/l1.exe PID=    166295.
  
 Copyright (c) 1988,1990,1992,1993,1995,1998,2003,2009,2013,
            Gaussian, Inc.  All Rights Reserved.
  
 This is part of the Gaussian(R) 09 program.  It is based on
 the Gaussian(R) 03 system (copyright 2003, Gaussian, Inc.),
 the Gaussian(R) 98 system (copyright 1998, Gaussian, Inc.),
 the Gaussian(R) 94 system (copyright 1995, Gaussian, Inc.),
 the Gaussian 92(TM) system (copyright 1992, Gaussian, Inc.),
 the Gaussian 90(TM) system (copyright 1990, Gaussian, Inc.),
 the Gaussian 88(TM) system (copyright 1988, Gaussian, Inc.),
 the Gaussian 86(TM) system (copyright 1986, Carnegie Mellon
 University), and the Gaussian 82(TM) system (copyright 1983,
 Carnegie Mellon University). Gaussian is a federally registered
 trademark of Gaussian, Inc.
  
 This software contains proprietary and confidential information,
 including trade secrets, belonging to Gaussian, Inc.
  
 This software is provided under written license and may be
 used, copied, transmitted, or stored only in accord with that
 written license.
  
 The following legend is applicable only to US Government
 contracts under FAR:
  
                    RESTRICTED RIGHTS LEGEND
  
 Use, reproduction and disclosure by the US Government is
 subject to restrictions as set forth in subparagraphs (a)
 and (c) of the Commercial Computer Software - Restricted
 Rights clause in FAR 52.227-19.
  
 Gaussian, Inc.
 340 Quinnipiac St., Bldg. 40, Wallingford CT 06492
  
  
 ---------------------------------------------------------------
 Warning -- This program may not be used in any manner that
 competes with the business of Gaussian, Inc. or will provide
 assistance to any competitor of Gaussian, Inc.  The licensee
 of this program is prohibited from giving any competitor of
 Gaussian, Inc. access to this program.  By using this program,
 the user acknowledges that Gaussian, Inc. is engaged in the
 business of creating and licensing software in the field of
 computational chemistry and represents and warrants to the
 licensee that it is not a competitor of Gaussian, Inc. and that
 it will not use this program in any manner prohibited above.
 ---------------------------------------------------------------
  

 Cite this work as:
 Gaussian 09, Revision D.01,
 M. J. Frisch, G. W. Trucks, H. B. Schlegel, G. E. Scuseria, 
 M. A. Robb, J. R. Cheeseman, G. Scalmani, V. Barone, B. Mennucci, 
 G. A. Petersson, H. Nakatsuji, M. Caricato, X. Li, H. P. Hratchian, 
 A. F. Izmaylov, J. Bloino, G. Zheng, J. L. Sonnenberg, M. Hada, 
 M. Ehara, K. Toyota, R. Fukuda, J. Hasegawa, M. Ishida, T. Nakajima, 
 Y. Honda, O. Kitao, H. Nakai, T. Vreven, J. A. Montgomery, Jr., 
 J. E. Peralta, F. Ogliaro, M. Bearpark, J. J. Heyd, E. Brothers, 
 K. N. Kudin, V. N. Staroverov, T. Keith, R. Kobayashi, J. Normand, 
 K. Raghavachari, A. Rendell, J. C. Burant, S. S. Iyengar, J. Tomasi, 
 M. Cossi, N. Rega, J. M. Millam, M. Klene, J. E. Knox, J. B. Cross, 
 V. Bakken, C. Adamo, J. Jaramillo, R. Gomperts, R. E. Stratmann, 
 O. Yazyev, A. J. Austin, R. Cammi, C. Pomelli, J. W. Ochterski, 
 R. L. Martin, K. Morokuma, V. G. Zakrzewski, G. A. Voth, 
 P. Salvador, J. J. Dannenberg, S. Dapprich, A. D. Daniels, 
 O. Farkas, J. B. Foresman, J. V. Ortiz, J. Cioslowski, 
 and D. J. Fox, Gaussian, Inc., Wallingford CT, 2013.
 
 ******************************************
 Gaussian 09:  ES64L-G09RevD.01 24-Apr-2013
                 6-Dec-2020 
 ******************************************
 %nprocshared=4
 Will use up to    4 processors via shared memory.
 %mem=100MW
 %NoSave
 %chk=gas.chk
 -------------------------
 #b3lyp/6-31+G(d) opt freq
 -------------------------
 1/14=-1,18=20,19=15,26=3,38=1/1,3;
 2/9=110,12=2,17=6,18=5,40=1/2;
 3/5=1,6=6,7=11,11=2,16=1,25=1,30=1,71=1,74=-5/1,2,3;
 4//1;
 5/5=2,38=5/2;
 6/7=2,8=2,9=2,10=2,28=1/1;
 7//1,2,3,16;
 1/14=-1,18=20,19=15,26=3/3(2);
 2/9=110/2;
 99//99;
 2/9=110/2;
 3/5=1,6=6,7=11,11=2,16=1,25=1,30=1,71=1,74=-5/1,2,3;
 4/5=5,16=3,69=1/1;
 5/5=2,38=5/2;
 7//1,2,3,16;
 1/14=-1,18=20,19=15,26=3/3(-5);
 2/9=110/2;
 6/7=2,8=2,9=2,10=2,19=2,28=1/1;
 99/9=1/99;
 -------
 gas opt
 -------
 Symbolic Z-matrix:
 Charge =  0 Multiplicity = 1
 C                     0.1641   -1.3726   -0.0002 
 C                    -1.1066   -0.8284    0.0001 
 C                    -1.2707    0.5442    0. 
 C                    -0.1641    1.3726    0. 
 C                     1.1066    0.8284    0.0006 
 C                     1.2707   -0.5442   -0.0007 
 H                     0.2923   -2.4449    0.0044 
 H                    -1.9712   -1.4756    0. 
 H                    -2.2635    0.9693   -0.0005 
 H                    -0.2923    2.4449   -0.0008 
 H                     1.9712    1.4756   -0.0001 
 H                     2.2635   -0.9693    0.0002 
 

 GradGradGradGradGradGradGradGradGradGradGradGradGradGradGradGradGradGrad
 Berny optimization.
 Initialization pass.
                           ----------------------------
                           !    Initial Parameters    !
                           ! (Angstroms and Degrees)  !
 --------------------------                            --------------------------
 ! Name  Definition              Value          Derivative Info.                !
 --------------------------------------------------------------------------------
 ! R1    R(1,2)                  1.3823         estimate D2E/DX2                !
 ! R2    R(1,6)                  1.3823         estimate D2E/DX2                !
 ! R3    R(1,7)                  1.0799         estimate D2E/DX2                !
 ! R4    R(2,3)                  1.3824         estimate D2E/DX2                !
 ! R5    R(2,8)                  1.08           estimate D2E/DX2                !
 ! R6    R(3,4)                  1.3823         estimate D2E/DX2                !
 ! R7    R(3,9)                  1.08           estimate D2E/DX2                !
 ! R8    R(4,5)                  1.3823         estimate D2E/DX2                !
 ! R9    R(4,10)                 1.0799         estimate D2E/DX2                !
 ! R10   R(5,6)                  1.3824         estimate D2E/DX2                !
 ! R11   R(5,11)                 1.08           estimate D2E/DX2                !
 ! R12   R(6,12)                 1.08           estimate D2E/DX2                !
 ! A1    A(2,1,6)              119.9976         estimate D2E/DX2                !
 ! A2    A(2,1,7)              120.0012         estimate D2E/DX2                !
 ! A3    A(6,1,7)              120.0006         estimate D2E/DX2                !
 ! A4    A(1,2,3)              120.0015         estimate D2E/DX2                !
 ! A5    A(1,2,8)              119.9993         estimate D2E/DX2                !
 ! A6    A(3,2,8)              119.9993         estimate D2E/DX2                !
 ! A7    A(2,3,4)              120.0009         estimate D2E/DX2                !
 ! A8    A(2,3,9)              119.9974         estimate D2E/DX2                !
 ! A9    A(4,3,9)              120.0017         estimate D2E/DX2                !
 ! A10   A(3,4,5)              119.9976         estimate D2E/DX2                !
 ! A11   A(3,4,10)             120.0008         estimate D2E/DX2                !
 ! A12   A(5,4,10)             120.0016         estimate D2E/DX2                !
 ! A13   A(4,5,6)              120.0014         estimate D2E/DX2                !
 ! A14   A(4,5,11)             119.9992         estimate D2E/DX2                !
 ! A15   A(6,5,11)             119.9992         estimate D2E/DX2                !
 ! A16   A(1,6,5)              120.0009         estimate D2E/DX2                !
 ! A17   A(1,6,12)             120.0017         estimate D2E/DX2                !
 ! A18   A(5,6,12)             119.9973         estimate D2E/DX2                !
 ! D1    D(6,1,2,3)             -0.0048         estimate D2E/DX2                !
 ! D2    D(6,1,2,8)            179.9699         estimate D2E/DX2                !
 ! D3    D(7,1,2,3)            179.723          estimate D2E/DX2                !
 ! D4    D(7,1,2,8)             -0.3023         estimate D2E/DX2                !
 ! D5    D(2,1,6,5)              0.0718         estimate D2E/DX2                !
 ! D6    D(2,1,6,12)           179.9305         estimate D2E/DX2                !
 ! D7    D(7,1,6,5)           -179.656          estimate D2E/DX2                !
 ! D8    D(7,1,6,12)             0.2027         estimate D2E/DX2                !
 ! D9    D(1,2,3,4)             -0.0191         estimate D2E/DX2                !
 ! D10   D(1,2,3,9)            179.955          estimate D2E/DX2                !
 ! D11   D(8,2,3,4)           -179.9939         estimate D2E/DX2                !
 ! D12   D(8,2,3,9)             -0.0197         estimate D2E/DX2                !
 ! D13   D(2,3,4,5)             -0.0239         estimate D2E/DX2                !
 ! D14   D(2,3,4,10)           179.9558         estimate D2E/DX2                !
 ! D15   D(9,3,4,5)           -179.9981         estimate D2E/DX2                !
 ! D16   D(9,3,4,10)            -0.0184         estimate D2E/DX2                !
 ! D17   D(3,4,5,6)              0.0909         estimate D2E/DX2                !
 ! D18   D(3,4,5,11)           179.9571         estimate D2E/DX2                !
 ! D19   D(10,4,5,6)          -179.8888         estimate D2E/DX2                !
 ! D20   D(10,4,5,11)           -0.0226         estimate D2E/DX2                !
 ! D21   D(4,5,6,1)             -0.1149         estimate D2E/DX2                !
 ! D22   D(4,5,6,12)          -179.9736         estimate D2E/DX2                !
 ! D23   D(11,5,6,1)          -179.9811         estimate D2E/DX2                !
 ! D24   D(11,5,6,12)            0.1602         estimate D2E/DX2                !
 --------------------------------------------------------------------------------
 Trust Radius=3.00D-01 FncErr=1.00D-07 GrdErr=1.00D-06
 Number of steps in this run=     64 maximum allowed number of steps=    100.
 GradGradGradGradGradGradGradGradGradGradGradGradGradGradGradGradGradGrad

                          Input orientation:                          
 ---------------------------------------------------------------------
 Center     Atomic      Atomic             Coordinates (Angstroms)
 Number     Number       Type             X           Y           Z
 ---------------------------------------------------------------------
      1          6           0        0.164100   -1.372600   -0.000200
      2          6           0       -1.106600   -0.828400    0.000100
      3          6           0       -1.270700    0.544200    0.000000
      4          6           0       -0.164100    1.372600    0.000000
      5          6           0        1.106600    0.828400    0.000600
      6          6           0        1.270700   -0.544200   -0.000700
      7          1           0        0.292300   -2.444900    0.004400
      8          1           0       -1.971200   -1.475600    0.000000
      9          1           0       -2.263500    0.969300   -0.000500
     10          1           0       -0.292300    2.444900   -0.000800
     11          1           0        1.971200    1.475600   -0.000100
     12          1           0        2.263500   -0.969300    0.000200
 ---------------------------------------------------------------------
                    Distance matrix (angstroms):
                    1          2          3          4          5
     1  C    0.000000
     2  C    1.382329   0.000000
     3  C    2.394321   1.382375   0.000000
     4  C    2.764749   2.394307   1.382321   0.000000
     5  C    2.394307   2.764641   2.394227   1.382329   0.000000
     6  C    1.382321   2.394228   2.764657   2.394321   1.382375
     7  H    1.079946   2.137759   3.373086   3.844688   3.373069
     8  H    2.137783   1.080000   2.137824   3.373107   3.844642
     9  H    3.373090   2.137789   1.079982   2.137787   3.373044
    10  H    3.844686   3.373067   2.137739   1.079937   2.137755
    11  H    3.373107   3.844642   3.373043   2.137783   1.080001
    12  H    2.137787   3.373044   3.844639   3.373090   2.137789
                    6          7          8          9         10
     6  C    0.000000
     7  H    2.137745   0.000000
     8  H    3.373043   2.462315   0.000000
     9  H    3.844639   4.264845   2.462311   0.000000
    10  H    3.373083   4.924625   4.264859   2.462321   0.000000
    11  H    2.137824   4.264862   4.924642   4.264859   2.462311
    12  H    1.079983   2.462325   4.264859   4.924622   4.264842
                   11         12
    11  H    0.000000
    12  H    2.462311   0.000000
 Stoichiometry    C6H6
 Framework group  C1[X(C6H6)]
 Deg. of freedom    30
 Full point group                 C1      NOp   1
 Largest Abelian subgroup         C1      NOp   1
 Largest concise Abelian subgroup C1      NOp   1
                         Standard orientation:                         
 ---------------------------------------------------------------------
 Center     Atomic      Atomic             Coordinates (Angstroms)
 Number     Number       Type             X           Y           Z
 ---------------------------------------------------------------------
      1          6           0       -1.381042    0.060675   -0.000248
      2          6           0       -0.637970    1.226297    0.000052
      3          6           0        0.743072    1.165622   -0.000048
      4          6           0        1.381042   -0.060675   -0.000048
      5          6           0        0.637970   -1.226297    0.000552
      6          6           0       -0.743072   -1.165622   -0.000748
      7          1           0       -2.459938    0.108073    0.004352
      8          1           0       -1.136385    2.184412   -0.000048
      9          1           0        1.323553    2.076339   -0.000548
     10          1           0        2.459938   -0.108073   -0.000848
     11          1           0        1.136385   -2.184412   -0.000148
     12          1           0       -1.323553   -2.076339    0.000152
 ---------------------------------------------------------------------
 Rotational constants (GHZ):      5.8010018      5.8005632      2.9003923
 Standard basis: 6-31+G(d) (6D, 7F)
 There are   126 symmetry adapted cartesian basis functions of A   symmetry.
 There are   126 symmetry adapted basis functions of A   symmetry.
   126 basis functions,   216 primitive gaussians,   126 cartesian basis functions
    21 alpha electrons       21 beta electrons
       nuclear repulsion energy       205.1680538300 Hartrees.
 NAtoms=   12 NActive=   12 NUniq=   12 SFac= 1.00D+00 NAtFMM=   60 NAOKFM=F Big=F
 Integral buffers will be    131072 words long.
 Raffenetti 2 integral format.
 Two-electron integral symmetry is turned on.
 One-electron integrals computed using PRISM.
 NBasis=   126 RedAO= T EigKep=  5.84D-06  NBF=   126
 NBsUse=   126 1.00D-06 EigRej= -1.00D+00 NBFU=   126
 ExpMin= 4.38D-02 ExpMax= 3.05D+03 ExpMxC= 4.57D+02 IAcc=2 IRadAn=         4 AccDes= 0.00D+00
 Harris functional with IExCor=  402 and IRadAn=       4 diagonalized for initial guess.
 HarFok:  IExCor=  402 AccDes= 0.00D+00 IRadAn=         4 IDoV= 1 UseB2=F ITyADJ=14
 ICtDFT=  3500011 ScaDFX=  1.000000  1.000000  1.000000  1.000000
 FoFCou: FMM=F IPFlag=           0 FMFlag=      100000 FMFlg1=           0
         NFxFlg=           0 DoJE=T BraDBF=F KetDBF=T FulRan=T
         wScrn=  0.000000 ICntrl=     500 IOpCl=  0 I1Cent=   200000004 NGrid=           0
         NMat0=    1 NMatS0=      1 NMatT0=    0 NMatD0=    1 NMtDS0=    0 NMtDT0=    0
 Petite list used in FoFCou.
 Keep R1 ints in memory in canonical form, NReq=33104011.
 Requested convergence on RMS density matrix=1.00D-08 within 128 cycles.
 Requested convergence on MAX density matrix=1.00D-06.
 Requested convergence on             energy=1.00D-06.
 No special actions if energy rises.
 SCF Done:  E(RB3LYP) =  -232.257213345     A.U. after   10 cycles
            NFock= 10  Conv=0.26D-08     -V/T= 2.0089

 **********************************************************************

            Population analysis using the SCF density.

 **********************************************************************

 Orbital symmetries:
       Occupied  (A) (A) (A) (A) (A) (A) (A) (A) (A) (A) (A) (A)
                 (A) (A) (A) (A) (A) (A) (A) (A) (A)
       Virtual   (A) (A) (A) (A) (A) (A) (A) (A) (A) (A) (A) (A)
                 (A) (A) (A) (A) (A) (A) (A) (A) (A) (A) (A) (A)
                 (A) (A) (A) (A) (A) (A) (A) (A) (A) (A) (A) (A)
                 (A) (A) (A) (A) (A) (A) (A) (A) (A) (A) (A) (A)
                 (A) (A) (A) (A) (A) (A) (A) (A) (A) (A) (A) (A)
                 (A) (A) (A) (A) (A) (A) (A) (A) (A) (A) (A) (A)
                 (A) (A) (A) (A) (A) (A) (A) (A) (A) (A) (A) (A)
                 (A) (A) (A) (A) (A) (A) (A) (A) (A) (A) (A) (A)
                 (A) (A) (A) (A) (A) (A) (A) (A) (A)
 The electronic state is 1-A.
 Alpha  occ. eigenvalues --  -10.19328 -10.19298 -10.19298 -10.19236 -10.19236
 Alpha  occ. eigenvalues --  -10.19206  -0.86432  -0.75372  -0.75370  -0.60909
 Alpha  occ. eigenvalues --   -0.60909  -0.53219  -0.46570  -0.45240  -0.42824
 Alpha  occ. eigenvalues --   -0.42821  -0.37416  -0.34917  -0.34917  -0.25871
 Alpha  occ. eigenvalues --   -0.25870
 Alpha virt. eigenvalues --   -0.01078  -0.01077   0.00901   0.02650   0.02650
 Alpha virt. eigenvalues --    0.04698   0.04699   0.06604   0.07912   0.07946
 Alpha virt. eigenvalues --    0.09197   0.09221   0.10046   0.13194   0.14353
 Alpha virt. eigenvalues --    0.14366   0.14623   0.14626   0.15568   0.15600
 Alpha virt. eigenvalues --    0.19854   0.19919   0.19921   0.20968   0.21224
 Alpha virt. eigenvalues --    0.21241   0.23767   0.24562   0.24564   0.26754
 Alpha virt. eigenvalues --    0.28667   0.28671   0.33089   0.35585   0.35587
 Alpha virt. eigenvalues --    0.35624   0.35626   0.57052   0.58160   0.62217
 Alpha virt. eigenvalues --    0.62501   0.65842   0.71616   0.71616   0.72708
 Alpha virt. eigenvalues --    0.72710   0.74816   0.74817   0.77443   0.77447
 Alpha virt. eigenvalues --    0.80607   0.82920   0.90217   0.93370   0.93374
 Alpha virt. eigenvalues --    0.96144   0.96146   0.98807   1.03452   1.07703
 Alpha virt. eigenvalues --    1.07711   1.14641   1.14646   1.17192   1.17193
 Alpha virt. eigenvalues --    1.25157   1.31924   1.38477   1.44657   1.44662
 Alpha virt. eigenvalues --    1.48407   1.48409   1.50692   1.50694   1.75131
 Alpha virt. eigenvalues --    1.83110   1.89763   1.92734   2.00396   2.00397
 Alpha virt. eigenvalues --    2.13169   2.13173   2.16260   2.16268   2.18646
 Alpha virt. eigenvalues --    2.18648   2.31762   2.31764   2.34207   2.58256
 Alpha virt. eigenvalues --    2.58261   2.67516   2.73708   2.73713   2.75030
 Alpha virt. eigenvalues --    2.75032   2.83695   3.03760   3.44934   4.24224
 Alpha virt. eigenvalues --    4.24229   4.24565   4.37925   4.37926   4.69175
          Condensed to atoms (all electrons):
               1          2          3          4          5          6
     1  C    4.966571   0.556954  -0.091472  -0.010061  -0.091636   0.556866
     2  C    0.556954   4.966186   0.557039  -0.091632  -0.010005  -0.091712
     3  C   -0.091472   0.557039   4.966121   0.556862  -0.091713  -0.010030
     4  C   -0.010061  -0.091632   0.556862   4.966585   0.556946  -0.091468
     5  C   -0.091636  -0.010005  -0.091713   0.556946   4.966200   0.557030
     6  C    0.556866  -0.091712  -0.010030  -0.091468   0.557030   4.966134
     7  H    0.275626  -0.000050   0.010686  -0.007841   0.010693   0.000007
     8  H   -0.000010   0.275519   0.000045   0.010705  -0.007836   0.010691
     9  H    0.010665   0.000052   0.275531   0.000044   0.010680  -0.007829
    10  H   -0.007842   0.010695   0.000004   0.275631  -0.000056   0.010687
    11  H    0.010705  -0.007836   0.010691  -0.000008   0.275519   0.000043
    12  H    0.000041   0.010682  -0.007829   0.010665   0.000048   0.275536
               7          8          9         10         11         12
     1  C    0.275626  -0.000010   0.010665  -0.007842   0.010705   0.000041
     2  C   -0.000050   0.275519   0.000052   0.010695  -0.007836   0.010682
     3  C    0.010686   0.000045   0.275531   0.000004   0.010691  -0.007829
     4  C   -0.007841   0.010705   0.000044   0.275631  -0.000008   0.010665
     5  C    0.010693  -0.007836   0.010680  -0.000056   0.275519   0.000048
     6  C    0.000007   0.010691  -0.007829   0.010687   0.000043   0.275536
     7  H    0.546705  -0.005789  -0.000179   0.000018  -0.000179  -0.005792
     8  H   -0.005789   0.546738  -0.005791  -0.000179   0.000018  -0.000179
     9  H   -0.000179  -0.005791   0.546697  -0.005792  -0.000179   0.000018
    10  H    0.000018  -0.000179  -0.005792   0.546707  -0.005789  -0.000179
    11  H   -0.000179   0.000018  -0.000179  -0.005789   0.546739  -0.005790
    12  H   -0.005792  -0.000179   0.000018  -0.000179  -0.005790   0.546696
 Mulliken charges:
               1
     1  C   -0.176409
     2  C   -0.175892
     3  C   -0.175934
     4  C   -0.176428
     5  C   -0.175870
     6  C   -0.175955
     7  H    0.176094
     8  H    0.176067
     9  H    0.176082
    10  H    0.176094
    11  H    0.176067
    12  H    0.176082
 Sum of Mulliken charges =   0.00000
 Mulliken charges with hydrogens summed into heavy atoms:
               1
     1  C   -0.000315
     2  C    0.000176
     3  C    0.000148
     4  C   -0.000334
     5  C    0.000197
     6  C    0.000128
 Electronic spatial extent (au):  <R**2>=            453.3420
 Charge=              0.0000 electrons
 Dipole moment (field-independent basis, Debye):
    X=              0.0000    Y=              0.0000    Z=              0.0023  Tot=              0.0023
 Quadrupole moment (field-independent basis, Debye-Ang):
   XX=            -32.2502   YY=            -32.2515   ZZ=            -40.1096
   XY=              0.0001   XZ=             -0.0137   YZ=             -0.0009
 Traceless Quadrupole moment (field-independent basis, Debye-Ang):
   XX=              2.6202   YY=              2.6189   ZZ=             -5.2392
   XY=              0.0001   XZ=             -0.0137   YZ=             -0.0009
 Octapole moment (field-independent basis, Debye-Ang**2):
  XXX=              0.0003  YYY=              0.0000  ZZZ=              0.0042  XYY=              0.0000
  XXY=              0.0000  XXZ=              0.0225  XZZ=              0.0000  YZZ=              0.0000
  YYZ=             -0.0021  XYZ=              0.0002
 Hexadecapole moment (field-independent basis, Debye-Ang**3):
 XXXX=           -275.7512 YYYY=           -275.7510 ZZZZ=            -51.2997 XXXY=              0.0002
 XXXZ=             -0.0846 YYYX=              0.0017 YYYZ=             -0.0088 ZZZX=             -0.0015
 ZZZY=             -0.0028 XXYY=            -91.9170 XXZZ=            -64.7842 YYZZ=            -64.7859
 XXYZ=              0.0001 YYXZ=             -0.0050 ZZXY=             -0.0001
 N-N= 2.051680538300D+02 E-N=-9.475144078739D+02  KE= 2.302013542302D+02
 Calling FoFJK, ICntrl=      2127 FMM=F ISym2X=0 I1Cent= 0 IOpClX= 0 NMat=1 NMatS=1 NMatT=0.
 ***** Axes restored to original set *****
 -------------------------------------------------------------------
 Center     Atomic                   Forces (Hartrees/Bohr)
 Number     Number              X              Y              Z
 -------------------------------------------------------------------
      1        6           0.001296420   -0.010898575    0.000273860
      2        6          -0.008803306   -0.006541576   -0.000044990
      3        6          -0.010155070    0.004258857   -0.000092683
      4        6          -0.001295743    0.010892705    0.000027694
      5        6           0.008803279    0.006541554   -0.000276232
      6        6           0.010155229   -0.004258545    0.000207320
      7        1           0.000647079   -0.005428117   -0.000217193
      8        1          -0.004344461   -0.003252681    0.000049470
      9        1          -0.005000133    0.002143598    0.000007504
     10        1          -0.000647631    0.005433683    0.000046390
     11        1           0.004344358    0.003252643    0.000045934
     12        1           0.004999980   -0.002143547   -0.000027076
 -------------------------------------------------------------------
 Cartesian Forces:  Max     0.010898575 RMS     0.005005783

 GradGradGradGradGradGradGradGradGradGradGradGradGradGradGradGradGradGrad
 Berny optimization.
 FormGI is forming the generalized inverse of G from B-inverse, IUseBI=4.
 Internal  Forces:  Max     0.016459424 RMS     0.005769570
 Search for a local minimum.
 Step number   1 out of a maximum of   64
 All quantities printed in internal units (Hartrees-Bohrs-Radians)
 Mixed Optimization -- RFO/linear search
 Second derivative matrix not updated -- first step.
 ITU=  0
     Eigenvalues ---    0.02322   0.02322   0.02322   0.02322   0.02322
     Eigenvalues ---    0.02322   0.02323   0.02323   0.02323   0.16000
     Eigenvalues ---    0.16000   0.16000   0.16000   0.16000   0.16000
     Eigenvalues ---    0.22000   0.22000   0.22000   0.35994   0.35994
     Eigenvalues ---    0.35996   0.35996   0.36001   0.36002   0.43867
     Eigenvalues ---    0.43872   0.48671   0.48677   0.48679   0.48681
 RFO step:  Lambda=-3.79310769D-03 EMin= 2.32212238D-02
 Linear search not attempted -- first point.
 Iteration  1 RMS(Cart)=  0.01965263 RMS(Int)=  0.00001270
 Iteration  2 RMS(Cart)=  0.00000741 RMS(Int)=  0.00000069
 Iteration  3 RMS(Cart)=  0.00000000 RMS(Int)=  0.00000069
 Variable       Old X    -DE/DX   Delta X   Delta X   Delta X     New X
                                 (Linear)    (Quad)   (Total)
    R1        2.61222   0.01645   0.00000   0.03353   0.03353   2.64575
    R2        2.61221   0.01646   0.00000   0.03355   0.03355   2.64576
    R3        2.04080   0.00547   0.00000   0.01502   0.01502   2.05583
    R4        2.61231   0.01638   0.00000   0.03340   0.03340   2.64571
    R5        2.04091   0.00543   0.00000   0.01492   0.01492   2.05583
    R6        2.61221   0.01646   0.00000   0.03355   0.03355   2.64576
    R7        2.04087   0.00544   0.00000   0.01496   0.01496   2.05583
    R8        2.61222   0.01645   0.00000   0.03353   0.03353   2.64575
    R9        2.04078   0.00547   0.00000   0.01504   0.01504   2.05583
   R10        2.61231   0.01638   0.00000   0.03340   0.03340   2.64571
   R11        2.04091   0.00543   0.00000   0.01492   0.01492   2.05583
   R12        2.04087   0.00544   0.00000   0.01496   0.01496   2.05583
    A1        2.09435   0.00001   0.00000   0.00004   0.00004   2.09439
    A2        2.09442  -0.00001   0.00000  -0.00005  -0.00005   2.09436
    A3        2.09441   0.00000   0.00000   0.00003   0.00002   2.09443
    A4        2.09442   0.00001   0.00000   0.00006   0.00006   2.09448
    A5        2.09438   0.00000   0.00000   0.00000   0.00000   2.09438
    A6        2.09438  -0.00001   0.00000  -0.00005  -0.00005   2.09433
    A7        2.09441  -0.00002   0.00000  -0.00010  -0.00010   2.09431
    A8        2.09435   0.00002   0.00000   0.00009   0.00009   2.09444
    A9        2.09443   0.00000   0.00000   0.00001   0.00001   2.09443
   A10        2.09435   0.00001   0.00000   0.00004   0.00004   2.09439
   A11        2.09441   0.00000   0.00000   0.00002   0.00002   2.09443
   A12        2.09442  -0.00001   0.00000  -0.00006  -0.00006   2.09436
   A13        2.09442   0.00001   0.00000   0.00006   0.00006   2.09448
   A14        2.09438   0.00000   0.00000   0.00000   0.00000   2.09438
   A15        2.09438  -0.00001   0.00000  -0.00005  -0.00005   2.09433
   A16        2.09441  -0.00002   0.00000  -0.00010  -0.00010   2.09431
   A17        2.09442   0.00000   0.00000   0.00001   0.00001   2.09443
   A18        2.09435   0.00002   0.00000   0.00009   0.00009   2.09444
    D1       -0.00008   0.00000   0.00000  -0.00012  -0.00012  -0.00020
    D2        3.14107   0.00000   0.00000   0.00005   0.00005   3.14112
    D3        3.13676   0.00010   0.00000   0.00388   0.00388   3.14064
    D4       -0.00528   0.00011   0.00000   0.00405   0.00405  -0.00122
    D5        0.00125  -0.00003   0.00000  -0.00125  -0.00125   0.00000
    D6        3.14038   0.00004   0.00000   0.00147   0.00147  -3.14133
    D7       -3.13559  -0.00014   0.00000  -0.00525  -0.00525  -3.14084
    D8        0.00354  -0.00007   0.00000  -0.00253  -0.00253   0.00101
    D9       -0.00033   0.00001   0.00000   0.00038   0.00038   0.00005
   D10        3.14081   0.00002   0.00000   0.00078   0.00078   3.14159
   D11       -3.14149   0.00001   0.00000   0.00021   0.00021  -3.14127
   D12       -0.00034   0.00002   0.00000   0.00062   0.00062   0.00027
   D13       -0.00042   0.00002   0.00000   0.00072   0.00072   0.00030
   D14        3.14082   0.00002   0.00000   0.00083   0.00083  -3.14153
   D15       -3.14156   0.00001   0.00000   0.00032   0.00032  -3.14124
   D16       -0.00032   0.00001   0.00000   0.00043   0.00043   0.00011
   D17        0.00159  -0.00006   0.00000  -0.00209  -0.00209  -0.00050
   D18        3.14084   0.00001   0.00000   0.00029   0.00029   3.14113
   D19       -3.13965  -0.00006   0.00000  -0.00220  -0.00220   3.14133
   D20       -0.00039   0.00000   0.00000   0.00017   0.00017  -0.00022
   D21       -0.00200   0.00006   0.00000   0.00236   0.00236   0.00035
   D22       -3.14113  -0.00001   0.00000  -0.00037  -0.00037  -3.14150
   D23       -3.14126   0.00000   0.00000  -0.00002  -0.00002  -3.14128
   D24        0.00280  -0.00007   0.00000  -0.00275  -0.00275   0.00005
         Item               Value     Threshold  Converged?
 Maximum Force            0.016459     0.000450     NO 
 RMS     Force            0.005770     0.000300     NO 
 Maximum Displacement     0.048127     0.001800     NO 
 RMS     Displacement     0.019652     0.001200     NO 
 Predicted change in Energy=-1.912046D-03
 GradGradGradGradGradGradGradGradGradGradGradGradGradGradGradGradGradGrad

                          Input orientation:                          
 ---------------------------------------------------------------------
 Center     Atomic      Atomic             Coordinates (Angstroms)
 Number     Number       Type             X           Y           Z
 ---------------------------------------------------------------------
      1          6           0        0.166229   -1.390158    0.000967
      2          6           0       -1.120784   -0.838981    0.000451
      3          6           0       -1.287070    0.551156   -0.000132
      4          6           0       -0.166229    1.390157   -0.000259
      5          6           0        1.120784    0.838981   -0.000169
      6          6           0        1.287070   -0.551156    0.000657
      7          1           0        0.295315   -2.470368    0.002316
      8          1           0       -1.991698   -1.490921    0.000247
      9          1           0       -2.287133    0.979400   -0.000534
     10          1           0       -0.295316    2.470368   -0.000656
     11          1           0        1.991698    1.490922   -0.000702
     12          1           0        2.287134   -0.979400    0.000812
 ---------------------------------------------------------------------
                    Distance matrix (angstroms):
                    1          2          3          4          5
     1  C    0.000000
     2  C    1.400071   0.000000
     3  C    2.425032   1.400047   0.000000
     4  C    2.800122   2.424919   1.400074   0.000000
     5  C    2.424920   2.800032   2.424995   1.400070   0.000000
     6  C    1.400074   2.424996   2.800231   2.425032   1.400048
     7  H    1.087896   2.160269   3.410800   3.888018   3.410746
     8  H    2.160278   1.087896   2.160227   3.410711   3.887928
     9  H    3.410834   2.160296   1.087897   2.160314   3.410809
    10  H    3.888018   3.410746   2.160312   1.087896   2.160269
    11  H    3.410712   3.887928   3.410788   2.160278   1.087896
    12  H    2.160315   3.410809   3.888127   3.410834   2.160296
                    6          7          8          9         10
     6  C    0.000000
     7  H    2.160313   0.000000
     8  H    3.410789   2.487920   0.000000
     9  H    3.888127   4.309286   2.487924   0.000000
    10  H    3.410800   4.975914   4.309237   2.488036   0.000000
    11  H    2.160228   4.309238   4.975824   4.309298   2.487920
    12  H    1.087897   2.488037   4.309299   4.976024   4.309285
                   11         12
    11  H    0.000000
    12  H    2.487925   0.000000
 Stoichiometry    C6H6
 Framework group  C1[X(C6H6)]
 Deg. of freedom    30
 Full point group                 C1      NOp   1
 Largest Abelian subgroup         C1      NOp   1
 Largest concise Abelian subgroup C1      NOp   1
                         Standard orientation:                         
 ---------------------------------------------------------------------
 Center     Atomic      Atomic             Coordinates (Angstroms)
 Number     Number       Type             X           Y           Z
 ---------------------------------------------------------------------
      1          6           0       -0.845807    1.115698    0.000027
      2          6           0        0.543336    1.290283   -0.000098
      3          6           0        1.389182    0.174633    0.000007
      4          6           0        0.845807   -1.115697    0.000177
      5          6           0       -0.543335   -1.290284   -0.000123
      6          6           0       -1.389182   -0.174633    0.000014
      7          1           0       -1.502965    1.982682    0.000841
      8          1           0        0.965537    2.292912   -0.000533
      9          1           0        2.468582    0.310332   -0.000090
     10          1           0        1.502965   -1.982681    0.000315
     11          1           0       -0.965536   -2.292912   -0.000426
     12          1           0       -2.468582   -0.310332   -0.000134
 ---------------------------------------------------------------------
 Rotational constants (GHZ):      5.6607672      5.6602426      2.8302525
 Standard basis: 6-31+G(d) (6D, 7F)
 There are   126 symmetry adapted cartesian basis functions of A   symmetry.
 There are   126 symmetry adapted basis functions of A   symmetry.
   126 basis functions,   216 primitive gaussians,   126 cartesian basis functions
    21 alpha electrons       21 beta electrons
       nuclear repulsion energy       202.7368299001 Hartrees.
 NAtoms=   12 NActive=   12 NUniq=   12 SFac= 1.00D+00 NAtFMM=   60 NAOKFM=F Big=F
 Integral buffers will be    131072 words long.
 Raffenetti 2 integral format.
 Two-electron integral symmetry is turned on.
 One-electron integrals computed using PRISM.
 NBasis=   126 RedAO= T EigKep=  6.59D-06  NBF=   126
 NBsUse=   126 1.00D-06 EigRej= -1.00D+00 NBFU=   126
 Initial guess from the checkpoint file:  "gas.chk"
 B after Tr=     0.000000    0.000000    0.000000
         Rot=    0.905126    0.000033    0.000059    0.425144 Ang=  50.32 deg.
 ExpMin= 4.38D-02 ExpMax= 3.05D+03 ExpMxC= 4.57D+02 IAcc=2 IRadAn=         4 AccDes= 0.00D+00
 Harris functional with IExCor=  402 and IRadAn=       4 diagonalized for initial guess.
 HarFok:  IExCor=  402 AccDes= 0.00D+00 IRadAn=         4 IDoV= 1 UseB2=F ITyADJ=14
 ICtDFT=  3500011 ScaDFX=  1.000000  1.000000  1.000000  1.000000
 FoFCou: FMM=F IPFlag=           0 FMFlag=      100000 FMFlg1=           0
         NFxFlg=           0 DoJE=T BraDBF=F KetDBF=T FulRan=T
         wScrn=  0.000000 ICntrl=     500 IOpCl=  0 I1Cent=   200000004 NGrid=           0
         NMat0=    1 NMatS0=      1 NMatT0=    0 NMatD0=    1 NMtDS0=    0 NMtDT0=    0
 Petite list used in FoFCou.
 Keep R1 ints in memory in canonical form, NReq=33104011.
 Requested convergence on RMS density matrix=1.00D-08 within 128 cycles.
 Requested convergence on MAX density matrix=1.00D-06.
 Requested convergence on             energy=1.00D-06.
 No special actions if energy rises.
 SCF Done:  E(RB3LYP) =  -232.258902726     A.U. after    9 cycles
            NFock=  9  Conv=0.41D-08     -V/T= 2.0104
 Calling FoFJK, ICntrl=      2127 FMM=F ISym2X=0 I1Cent= 0 IOpClX= 0 NMat=1 NMatS=1 NMatT=0.
 ***** Axes restored to original set *****
 -------------------------------------------------------------------
 Center     Atomic                   Forces (Hartrees/Bohr)
 Number     Number              X              Y              Z
 -------------------------------------------------------------------
      1        6          -0.000153920    0.001047057    0.000055696
      2        6           0.000795776    0.000580286   -0.000019481
      3        6           0.000955206   -0.000406314   -0.000001476
      4        6           0.000153876   -0.001046726   -0.000021909
      5        6          -0.000795555   -0.000580530    0.000011131
      6        6          -0.000955416    0.000406128   -0.000024981
      7        1          -0.000045256    0.000430542   -0.000040723
      8        1           0.000361246    0.000251571    0.000020506
      9        1           0.000407849   -0.000169211    0.000003718
     10        1           0.000045279   -0.000430404   -0.000002541
     11        1          -0.000361242   -0.000251628    0.000010203
     12        1          -0.000407843    0.000169228    0.000009857
 -------------------------------------------------------------------
 Cartesian Forces:  Max     0.001047057 RMS     0.000456246

 GradGradGradGradGradGradGradGradGradGradGradGradGradGradGradGradGradGrad
 Berny optimization.
 Using GEDIIS/GDIIS optimizer.
 FormGI is forming the generalized inverse of G from B-inverse, IUseBI=4.
 Internal  Forces:  Max     0.001490259 RMS     0.000509888
 Search for a local minimum.
 Step number   2 out of a maximum of   64
 All quantities printed in internal units (Hartrees-Bohrs-Radians)
 Mixed Optimization -- En-DIIS/RFO-DIIS
 Update second derivatives using D2CorX and points    1    2
 DE= -1.69D-03 DEPred=-1.91D-03 R= 8.84D-01
 TightC=F SS=  1.41D+00  RLast= 9.04D-02 DXNew= 5.0454D-01 2.7115D-01
 Trust test= 8.84D-01 RLast= 9.04D-02 DXMaxT set to 3.00D-01
 ITU=  1  0
 Use linear search instead of GDIIS.
     Eigenvalues ---    0.02322   0.02322   0.02322   0.02322   0.02322
     Eigenvalues ---    0.02322   0.02322   0.02323   0.02323   0.16000
     Eigenvalues ---    0.16000   0.16000   0.16000   0.16000   0.16000
     Eigenvalues ---    0.22000   0.22000   0.22000   0.35994   0.35995
     Eigenvalues ---    0.35996   0.35999   0.36002   0.36298   0.43966
     Eigenvalues ---    0.43972   0.48674   0.48677   0.48679   0.52951
 RFO step:  Lambda=-1.15015040D-07 EMin= 2.32209773D-02
 Quartic linear search produced a step of -0.08537.
 Iteration  1 RMS(Cart)=  0.00167947 RMS(Int)=  0.00000019
 Iteration  2 RMS(Cart)=  0.00000017 RMS(Int)=  0.00000006
 Variable       Old X    -DE/DX   Delta X   Delta X   Delta X     New X
                                 (Linear)    (Quad)   (Total)
    R1        2.64575  -0.00149  -0.00286  -0.00007  -0.00294   2.64281
    R2        2.64576  -0.00145  -0.00286   0.00001  -0.00286   2.64290
    R3        2.05583  -0.00043  -0.00128   0.00010  -0.00118   2.05464
    R4        2.64571  -0.00146  -0.00285  -0.00002  -0.00287   2.64284
    R5        2.05583  -0.00044  -0.00127   0.00007  -0.00120   2.05463
    R6        2.64576  -0.00145  -0.00286   0.00001  -0.00286   2.64290
    R7        2.05583  -0.00044  -0.00128   0.00007  -0.00120   2.05462
    R8        2.64575  -0.00149  -0.00286  -0.00007  -0.00293   2.64281
    R9        2.05583  -0.00043  -0.00128   0.00010  -0.00118   2.05464
   R10        2.64571  -0.00146  -0.00285  -0.00002  -0.00287   2.64284
   R11        2.05583  -0.00044  -0.00127   0.00007  -0.00120   2.05463
   R12        2.05583  -0.00044  -0.00128   0.00007  -0.00120   2.05462
    A1        2.09439   0.00002   0.00000   0.00008   0.00008   2.09447
    A2        2.09436   0.00000   0.00000  -0.00002  -0.00001   2.09435
    A3        2.09443  -0.00001   0.00000  -0.00007  -0.00007   2.09436
    A4        2.09448  -0.00004   0.00000  -0.00014  -0.00015   2.09433
    A5        2.09438   0.00000   0.00000  -0.00001  -0.00001   2.09437
    A6        2.09433   0.00003   0.00000   0.00015   0.00015   2.09448
    A7        2.09431   0.00002   0.00001   0.00006   0.00007   2.09438
    A8        2.09444   0.00000  -0.00001   0.00001   0.00000   2.09444
    A9        2.09443  -0.00001   0.00000  -0.00007  -0.00007   2.09436
   A10        2.09439   0.00002   0.00000   0.00008   0.00008   2.09447
   A11        2.09443  -0.00001   0.00000  -0.00007  -0.00007   2.09436
   A12        2.09436   0.00000   0.00001  -0.00002  -0.00001   2.09435
   A13        2.09448  -0.00004   0.00000  -0.00014  -0.00015   2.09433
   A14        2.09438   0.00000   0.00000  -0.00001  -0.00001   2.09437
   A15        2.09433   0.00003   0.00000   0.00015   0.00015   2.09448
   A16        2.09431   0.00002   0.00001   0.00006   0.00007   2.09438
   A17        2.09443  -0.00001   0.00000  -0.00007  -0.00007   2.09436
   A18        2.09444   0.00000  -0.00001   0.00001   0.00000   2.09444
    D1       -0.00020   0.00000   0.00001   0.00016   0.00017  -0.00003
    D2        3.14112   0.00001   0.00000   0.00029   0.00028   3.14140
    D3        3.14064   0.00002  -0.00033   0.00072   0.00039   3.14103
    D4       -0.00122   0.00002  -0.00035   0.00085   0.00050  -0.00072
    D5        0.00000   0.00000   0.00011   0.00004   0.00015   0.00015
    D6       -3.14133   0.00000  -0.00013  -0.00016  -0.00029   3.14157
    D7       -3.14084  -0.00001   0.00045  -0.00052  -0.00008  -3.14092
    D8        0.00101  -0.00002   0.00022  -0.00072  -0.00051   0.00050
    D9        0.00005   0.00000  -0.00003  -0.00006  -0.00009  -0.00004
   D10        3.14159   0.00000  -0.00007   0.00002  -0.00005   3.14154
   D11       -3.14127   0.00000  -0.00002  -0.00018  -0.00020  -3.14147
   D12        0.00027   0.00000  -0.00005  -0.00011  -0.00016   0.00011
   D13        0.00030  -0.00001  -0.00006  -0.00025  -0.00031  -0.00001
   D14       -3.14153   0.00000  -0.00007   0.00005  -0.00002  -3.14156
   D15       -3.14124  -0.00001  -0.00003  -0.00032  -0.00035  -3.14159
   D16        0.00011   0.00000  -0.00004  -0.00003  -0.00006   0.00005
   D17       -0.00050   0.00001   0.00018   0.00045   0.00063   0.00012
   D18        3.14113   0.00001  -0.00002   0.00035   0.00033   3.14146
   D19        3.14133   0.00000   0.00019   0.00015   0.00034  -3.14151
   D20       -0.00022   0.00000  -0.00001   0.00006   0.00004  -0.00018
   D21        0.00035  -0.00001  -0.00020  -0.00034  -0.00054  -0.00019
   D22       -3.14150   0.00000   0.00003  -0.00014  -0.00011   3.14157
   D23       -3.14128  -0.00001   0.00000  -0.00025  -0.00024  -3.14153
   D24        0.00005   0.00000   0.00023  -0.00005   0.00019   0.00024
         Item               Value     Threshold  Converged?
 Maximum Force            0.001490     0.000450     NO 
 RMS     Force            0.000510     0.000300     NO 
 Maximum Displacement     0.004127     0.001800     NO 
 RMS     Displacement     0.001680     0.001200     NO 
 Predicted change in Energy=-1.351663D-05
 GradGradGradGradGradGradGradGradGradGradGradGradGradGradGradGradGradGrad

                          Input orientation:                          
 ---------------------------------------------------------------------
 Center     Atomic      Atomic             Coordinates (Angstroms)
 Number     Number       Type             X           Y           Z
 ---------------------------------------------------------------------
      1          6           0        0.165988   -1.388602    0.000902
      2          6           0       -1.119634   -0.838123    0.000527
      3          6           0       -1.285629    0.550519   -0.000169
      4          6           0       -0.165988    1.388602   -0.000442
      5          6           0        1.119634    0.838123   -0.000011
      6          6           0        1.285629   -0.550519    0.000545
      7          1           0        0.295061   -2.468183    0.001969
      8          1           0       -1.989991   -1.489748    0.000627
      9          1           0       -2.285071    0.978594   -0.000509
     10          1           0       -0.295061    2.468184   -0.000950
     11          1           0        1.989991    1.489748   -0.000350
     12          1           0        2.285071   -0.978594    0.000861
 ---------------------------------------------------------------------
                    Distance matrix (angstroms):
                    1          2          3          4          5
     1  C    0.000000
     2  C    1.398517   0.000000
     3  C    2.422268   1.398528   0.000000
     4  C    2.796975   2.422342   1.398563   0.000000
     5  C    2.422343   2.797163   2.422396   1.398517   0.000000
     6  C    1.398563   2.422396   2.797078   2.422268   1.398528
     7  H    1.087271   2.158347   3.407514   3.884246   3.407578
     8  H    2.158351   1.087261   2.158429   3.407622   3.884424
     9  H    3.407537   2.158403   1.087260   2.158383   3.407601
    10  H    3.884246   3.407578   2.158393   1.087271   2.158347
    11  H    3.407622   3.884424   3.407615   2.158351   1.087261
    12  H    2.158383   3.407602   3.884338   3.407537   2.158404
                    6          7          8          9         10
     6  C    0.000000
     7  H    2.158393   0.000000
     8  H    3.407615   2.485720   0.000000
     9  H    3.884338   4.305504   2.485917   0.000000
    10  H    3.407514   4.971516   4.305579   2.485763   0.000000
    11  H    2.158429   4.305579   4.971686   4.305513   2.485720
    12  H    1.087260   2.485763   4.305513   4.971598   4.305504
                   11         12
    11  H    0.000000
    12  H    2.485917   0.000000
 Stoichiometry    C6H6
 Framework group  C1[X(C6H6)]
 Deg. of freedom    30
 Full point group                 C1      NOp   1
 Largest Abelian subgroup         C1      NOp   1
 Largest concise Abelian subgroup C1      NOp   1
                         Standard orientation:                         
 ---------------------------------------------------------------------
 Center     Atomic      Atomic             Coordinates (Angstroms)
 Number     Number       Type             X           Y           Z
 ---------------------------------------------------------------------
      1          6           0        0.541662    1.289329   -0.000025
      2          6           0        1.387514    0.175603   -0.000005
      3          6           0        0.845837   -1.113764   -0.000006
      4          6           0       -0.541662   -1.289329    0.000020
      5          6           0       -1.387514   -0.175603    0.000056
      6          6           0       -0.845837    1.113764   -0.000083
      7          1           0        0.962762    2.291742    0.000501
      8          1           0        2.466160    0.312198   -0.000138
      9          1           0        1.503336   -1.979691   -0.000039
     10          1           0       -0.962762   -2.291743    0.000053
     11          1           0       -2.466160   -0.312198   -0.000050
     12          1           0       -1.503336    1.979691   -0.000074
 ---------------------------------------------------------------------
 Rotational constants (GHZ):      5.6726322      5.6720680      2.8361751
 Standard basis: 6-31+G(d) (6D, 7F)
 There are   126 symmetry adapted cartesian basis functions of A   symmetry.
 There are   126 symmetry adapted basis functions of A   symmetry.
   126 basis functions,   216 primitive gaussians,   126 cartesian basis functions
    21 alpha electrons       21 beta electrons
       nuclear repulsion energy       202.9427124098 Hartrees.
 NAtoms=   12 NActive=   12 NUniq=   12 SFac= 1.00D+00 NAtFMM=   60 NAOKFM=F Big=F
 Integral buffers will be    131072 words long.
 Raffenetti 2 integral format.
 Two-electron integral symmetry is turned on.
 One-electron integrals computed using PRISM.
 NBasis=   126 RedAO= T EigKep=  6.53D-06  NBF=   126
 NBsUse=   126 1.00D-06 EigRej= -1.00D+00 NBFU=   126
 Initial guess from the checkpoint file:  "gas.chk"
 B after Tr=     0.000000    0.000000    0.000000
         Rot=    0.866237    0.000000    0.000000    0.499634 Ang=  59.95 deg.
 Keep R1 ints in memory in canonical form, NReq=33104011.
 Requested convergence on RMS density matrix=1.00D-08 within 128 cycles.
 Requested convergence on MAX density matrix=1.00D-06.
 Requested convergence on             energy=1.00D-06.
 No special actions if energy rises.
 SCF Done:  E(RB3LYP) =  -232.258916899     A.U. after    7 cycles
            NFock=  7  Conv=0.79D-08     -V/T= 2.0103
 Calling FoFJK, ICntrl=      2127 FMM=F ISym2X=0 I1Cent= 0 IOpClX= 0 NMat=1 NMatS=1 NMatT=0.
 ***** Axes restored to original set *****
 -------------------------------------------------------------------
 Center     Atomic                   Forces (Hartrees/Bohr)
 Number     Number              X              Y              Z
 -------------------------------------------------------------------
      1        6           0.000035505   -0.000019399    0.000032606
      2        6           0.000021196   -0.000004166   -0.000012816
      3        6           0.000065426    0.000028604   -0.000006598
      4        6          -0.000035560    0.000019410    0.000009324
      5        6          -0.000021185    0.000004156   -0.000030950
      6        6          -0.000065406   -0.000028599    0.000017669
      7        1           0.000015092   -0.000015436   -0.000027378
      8        1          -0.000025867   -0.000004505    0.000010798
      9        1          -0.000031949    0.000006569   -0.000000192
     10        1          -0.000015082    0.000015422    0.000000327
     11        1           0.000025872    0.000004507    0.000006375
     12        1           0.000031957   -0.000006564    0.000000834
 -------------------------------------------------------------------
 Cartesian Forces:  Max     0.000065426 RMS     0.000024933

 GradGradGradGradGradGradGradGradGradGradGradGradGradGradGradGradGradGrad
 Berny optimization.
 Using GEDIIS/GDIIS optimizer.
 FormGI is forming the generalized inverse of G from B-inverse, IUseBI=4.
 Internal  Forces:  Max     0.000039802 RMS     0.000017812
 Search for a local minimum.
 Step number   3 out of a maximum of   64
 All quantities printed in internal units (Hartrees-Bohrs-Radians)
 Mixed Optimization -- En-DIIS/RFO-DIIS
 Swapping is turned off.
 Update second derivatives using D2CorX and points    1    2    3
 DE= -1.42D-05 DEPred=-1.35D-05 R= 1.05D+00
 TightC=F SS=  1.41D+00  RLast= 7.81D-03 DXNew= 5.0454D-01 2.3419D-02
 Trust test= 1.05D+00 RLast= 7.81D-03 DXMaxT set to 3.00D-01
 ITU=  1  1  0
     Eigenvalues ---    0.02321   0.02322   0.02322   0.02322   0.02322
     Eigenvalues ---    0.02322   0.02322   0.02323   0.02323   0.15997
     Eigenvalues ---    0.16000   0.16000   0.16000   0.16000   0.16005
     Eigenvalues ---    0.21984   0.22000   0.22017   0.35990   0.35994
     Eigenvalues ---    0.35996   0.35997   0.36001   0.36330   0.43958
     Eigenvalues ---    0.43963   0.48353   0.48676   0.48677   0.51152
 En-DIIS/RFO-DIIS IScMMF=        0 using points:     3    2
 RFO step:  Lambda=-3.41913790D-08.
 DidBck=F Rises=F RFO-DIIS coefs:    0.98724    0.01276
 Iteration  1 RMS(Cart)=  0.00013820 RMS(Int)=  0.00000003
 Iteration  2 RMS(Cart)=  0.00000002 RMS(Int)=  0.00000001
 Variable       Old X    -DE/DX   Delta X   Delta X   Delta X     New X
                                 (Linear)    (Quad)   (Total)
    R1        2.64281   0.00002   0.00004   0.00000   0.00004   2.64285
    R2        2.64290  -0.00003   0.00004  -0.00010  -0.00007   2.64283
    R3        2.05464   0.00002   0.00002   0.00003   0.00004   2.05469
    R4        2.64284   0.00004   0.00004   0.00004   0.00007   2.64291
    R5        2.05463   0.00002   0.00002   0.00005   0.00006   2.05469
    R6        2.64290  -0.00003   0.00004  -0.00010  -0.00007   2.64283
    R7        2.05462   0.00003   0.00002   0.00007   0.00009   2.05471
    R8        2.64281   0.00002   0.00004   0.00000   0.00004   2.64285
    R9        2.05464   0.00002   0.00002   0.00003   0.00004   2.05469
   R10        2.64284   0.00004   0.00004   0.00004   0.00007   2.64291
   R11        2.05463   0.00002   0.00002   0.00005   0.00006   2.05469
   R12        2.05462   0.00003   0.00002   0.00007   0.00009   2.05471
    A1        2.09447  -0.00003   0.00000  -0.00015  -0.00015   2.09432
    A2        2.09435   0.00003   0.00000   0.00015   0.00015   2.09450
    A3        2.09436   0.00001   0.00000   0.00000   0.00000   2.09436
    A4        2.09433   0.00001   0.00000   0.00006   0.00006   2.09439
    A5        2.09437   0.00001   0.00000   0.00005   0.00006   2.09443
    A6        2.09448  -0.00002   0.00000  -0.00011  -0.00011   2.09437
    A7        2.09438   0.00002   0.00000   0.00009   0.00009   2.09448
    A8        2.09444  -0.00002   0.00000  -0.00008  -0.00008   2.09437
    A9        2.09436  -0.00001   0.00000  -0.00002  -0.00002   2.09434
   A10        2.09447  -0.00003   0.00000  -0.00015  -0.00015   2.09432
   A11        2.09436   0.00001   0.00000   0.00000   0.00000   2.09436
   A12        2.09435   0.00003   0.00000   0.00015   0.00015   2.09450
   A13        2.09433   0.00001   0.00000   0.00006   0.00006   2.09439
   A14        2.09437   0.00001   0.00000   0.00006   0.00006   2.09443
   A15        2.09448  -0.00002   0.00000  -0.00011  -0.00011   2.09437
   A16        2.09438   0.00002   0.00000   0.00009   0.00009   2.09448
   A17        2.09436  -0.00001   0.00000  -0.00002  -0.00002   2.09434
   A18        2.09444  -0.00002   0.00000  -0.00008  -0.00008   2.09437
    D1       -0.00003   0.00000   0.00000   0.00000   0.00000  -0.00003
    D2        3.14140   0.00000   0.00000   0.00012   0.00012   3.14152
    D3        3.14103   0.00001  -0.00001   0.00048   0.00048   3.14151
    D4       -0.00072   0.00001  -0.00001   0.00060   0.00059  -0.00012
    D5        0.00015   0.00000   0.00000  -0.00015  -0.00016  -0.00001
    D6        3.14157   0.00000   0.00000   0.00008   0.00008  -3.14153
    D7       -3.14092  -0.00001   0.00000  -0.00063  -0.00063  -3.14155
    D8        0.00050  -0.00001   0.00001  -0.00040  -0.00039   0.00011
    D9       -0.00004   0.00000   0.00000   0.00005   0.00005   0.00001
   D10        3.14154   0.00000   0.00000   0.00007   0.00007  -3.14158
   D11       -3.14147   0.00000   0.00000  -0.00007  -0.00007  -3.14154
   D12        0.00011   0.00000   0.00000  -0.00005  -0.00005   0.00006
   D13       -0.00001   0.00000   0.00000   0.00005   0.00006   0.00005
   D14       -3.14156   0.00000   0.00000   0.00000   0.00000  -3.14155
   D15       -3.14159   0.00000   0.00000   0.00004   0.00004  -3.14155
   D16        0.00005   0.00000   0.00000  -0.00001  -0.00001   0.00004
   D17        0.00012   0.00000  -0.00001  -0.00020  -0.00021  -0.00009
   D18        3.14146   0.00000   0.00000   0.00008   0.00007   3.14153
   D19       -3.14151   0.00000   0.00000  -0.00016  -0.00016   3.14151
   D20       -0.00018   0.00000   0.00000   0.00013   0.00013  -0.00005
   D21       -0.00019   0.00001   0.00001   0.00026   0.00026   0.00007
   D22        3.14157   0.00000   0.00000   0.00002   0.00002   3.14159
   D23       -3.14153   0.00000   0.00000  -0.00003  -0.00002  -3.14155
   D24        0.00024  -0.00001   0.00000  -0.00026  -0.00026  -0.00003
         Item               Value     Threshold  Converged?
 Maximum Force            0.000040     0.000450     YES
 RMS     Force            0.000018     0.000300     YES
 Maximum Displacement     0.000604     0.001800     YES
 RMS     Displacement     0.000138     0.001200     YES
 Predicted change in Energy=-4.364957D-08
 Optimization completed.
    -- Stationary point found.
                           ----------------------------
                           !   Optimized Parameters   !
                           ! (Angstroms and Degrees)  !
 --------------------------                            --------------------------
 ! Name  Definition              Value          Derivative Info.                !
 --------------------------------------------------------------------------------
 ! R1    R(1,2)                  1.3985         -DE/DX =    0.0                 !
 ! R2    R(1,6)                  1.3986         -DE/DX =    0.0                 !
 ! R3    R(1,7)                  1.0873         -DE/DX =    0.0                 !
 ! R4    R(2,3)                  1.3985         -DE/DX =    0.0                 !
 ! R5    R(2,8)                  1.0873         -DE/DX =    0.0                 !
 ! R6    R(3,4)                  1.3986         -DE/DX =    0.0                 !
 ! R7    R(3,9)                  1.0873         -DE/DX =    0.0                 !
 ! R8    R(4,5)                  1.3985         -DE/DX =    0.0                 !
 ! R9    R(4,10)                 1.0873         -DE/DX =    0.0                 !
 ! R10   R(5,6)                  1.3985         -DE/DX =    0.0                 !
 ! R11   R(5,11)                 1.0873         -DE/DX =    0.0                 !
 ! R12   R(6,12)                 1.0873         -DE/DX =    0.0                 !
 ! A1    A(2,1,6)              120.0044         -DE/DX =    0.0                 !
 ! A2    A(2,1,7)              119.9975         -DE/DX =    0.0                 !
 ! A3    A(6,1,7)              119.9981         -DE/DX =    0.0                 !
 ! A4    A(1,2,3)              119.9963         -DE/DX =    0.0                 !
 ! A5    A(1,2,8)              119.9986         -DE/DX =    0.0                 !
 ! A6    A(3,2,8)              120.0051         -DE/DX =    0.0                 !
 ! A7    A(2,3,4)              119.9993         -DE/DX =    0.0                 !
 ! A8    A(2,3,9)              120.0028         -DE/DX =    0.0                 !
 ! A9    A(4,3,9)              119.998          -DE/DX =    0.0                 !
 ! A10   A(3,4,5)              120.0044         -DE/DX =    0.0                 !
 ! A11   A(3,4,10)             119.9981         -DE/DX =    0.0                 !
 ! A12   A(5,4,10)             119.9975         -DE/DX =    0.0                 !
 ! A13   A(4,5,6)              119.9963         -DE/DX =    0.0                 !
 ! A14   A(4,5,11)             119.9986         -DE/DX =    0.0                 !
 ! A15   A(6,5,11)             120.0051         -DE/DX =    0.0                 !
 ! A16   A(1,6,5)              119.9993         -DE/DX =    0.0                 !
 ! A17   A(1,6,12)             119.998          -DE/DX =    0.0                 !
 ! A18   A(5,6,12)             120.0028         -DE/DX =    0.0                 !
 ! D1    D(6,1,2,3)             -0.0018         -DE/DX =    0.0                 !
 ! D2    D(6,1,2,8)            179.9891         -DE/DX =    0.0                 !
 ! D3    D(7,1,2,3)            179.968          -DE/DX =    0.0                 !
 ! D4    D(7,1,2,8)             -0.0411         -DE/DX =    0.0                 !
 ! D5    D(2,1,6,5)              0.0084         -DE/DX =    0.0                 !
 ! D6    D(2,1,6,12)          -180.0015         -DE/DX =    0.0                 !
 ! D7    D(7,1,6,5)           -179.9614         -DE/DX =    0.0                 !
 ! D8    D(7,1,6,12)             0.0288         -DE/DX =    0.0                 !
 ! D9    D(1,2,3,4)             -0.0022         -DE/DX =    0.0                 !
 ! D10   D(1,2,3,9)           -180.0029         -DE/DX =    0.0                 !
 ! D11   D(8,2,3,4)           -179.9931         -DE/DX =    0.0                 !
 ! D12   D(8,2,3,9)              0.0062         -DE/DX =    0.0                 !
 ! D13   D(2,3,4,5)             -0.0004         -DE/DX =    0.0                 !
 ! D14   D(2,3,4,10)          -179.998          -DE/DX =    0.0                 !
 ! D15   D(9,3,4,5)           -179.9997         -DE/DX =    0.0                 !
 ! D16   D(9,3,4,10)             0.0027         -DE/DX =    0.0                 !
 ! D17   D(3,4,5,6)              0.0071         -DE/DX =    0.0                 !
 ! D18   D(3,4,5,11)           179.9923         -DE/DX =    0.0                 !
 ! D19   D(10,4,5,6)           180.0046         -DE/DX =    0.0                 !
 ! D20   D(10,4,5,11)           -0.0102         -DE/DX =    0.0                 !
 ! D21   D(4,5,6,1)             -0.011          -DE/DX =    0.0                 !
 ! D22   D(4,5,6,12)           179.9988         -DE/DX =    0.0                 !
 ! D23   D(11,5,6,1)          -179.9963         -DE/DX =    0.0                 !
 ! D24   D(11,5,6,12)            0.0136         -DE/DX =    0.0                 !
 --------------------------------------------------------------------------------
 GradGradGradGradGradGradGradGradGradGradGradGradGradGradGradGradGradGrad

                          Input orientation:                          
 ---------------------------------------------------------------------
 Center     Atomic      Atomic             Coordinates (Angstroms)
 Number     Number       Type             X           Y           Z
 ---------------------------------------------------------------------
      1          6           0        0.165988   -1.388602    0.000902
      2          6           0       -1.119634   -0.838123    0.000527
      3          6           0       -1.285629    0.550519   -0.000169
      4          6           0       -0.165988    1.388602   -0.000442
      5          6           0        1.119634    0.838123   -0.000011
      6          6           0        1.285629   -0.550519    0.000545
      7          1           0        0.295061   -2.468183    0.001969
      8          1           0       -1.989991   -1.489748    0.000627
      9          1           0       -2.285071    0.978594   -0.000509
     10          1           0       -0.295061    2.468184   -0.000950
     11          1           0        1.989991    1.489748   -0.000350
     12          1           0        2.285071   -0.978594    0.000861
 ---------------------------------------------------------------------
                    Distance matrix (angstroms):
                    1          2          3          4          5
     1  C    0.000000
     2  C    1.398517   0.000000
     3  C    2.422268   1.398528   0.000000
     4  C    2.796975   2.422342   1.398563   0.000000
     5  C    2.422343   2.797163   2.422396   1.398517   0.000000
     6  C    1.398563   2.422396   2.797078   2.422268   1.398528
     7  H    1.087271   2.158347   3.407514   3.884246   3.407578
     8  H    2.158351   1.087261   2.158429   3.407622   3.884424
     9  H    3.407537   2.158403   1.087260   2.158383   3.407601
    10  H    3.884246   3.407578   2.158393   1.087271   2.158347
    11  H    3.407622   3.884424   3.407615   2.158351   1.087261
    12  H    2.158383   3.407602   3.884338   3.407537   2.158404
                    6          7          8          9         10
     6  C    0.000000
     7  H    2.158393   0.000000
     8  H    3.407615   2.485720   0.000000
     9  H    3.884338   4.305504   2.485917   0.000000
    10  H    3.407514   4.971516   4.305579   2.485763   0.000000
    11  H    2.158429   4.305579   4.971686   4.305513   2.485720
    12  H    1.087260   2.485763   4.305513   4.971598   4.305504
                   11         12
    11  H    0.000000
    12  H    2.485917   0.000000
 Stoichiometry    C6H6
 Framework group  C1[X(C6H6)]
 Deg. of freedom    30
 Full point group                 C1      NOp   1
 Largest Abelian subgroup         C1      NOp   1
 Largest concise Abelian subgroup C1      NOp   1
                         Standard orientation:                         
 ---------------------------------------------------------------------
 Center     Atomic      Atomic             Coordinates (Angstroms)
 Number     Number       Type             X           Y           Z
 ---------------------------------------------------------------------
      1          6           0        0.541662    1.289329   -0.000025
      2          6           0        1.387514    0.175603   -0.000005
      3          6           0        0.845837   -1.113764   -0.000006
      4          6           0       -0.541662   -1.289329    0.000020
      5          6           0       -1.387514   -0.175603    0.000056
      6          6           0       -0.845837    1.113764   -0.000083
      7          1           0        0.962762    2.291742    0.000501
      8          1           0        2.466160    0.312198   -0.000138
      9          1           0        1.503336   -1.979691   -0.000039
     10          1           0       -0.962762   -2.291743    0.000053
     11          1           0       -2.466160   -0.312198   -0.000050
     12          1           0       -1.503336    1.979691   -0.000074
 ---------------------------------------------------------------------
 Rotational constants (GHZ):      5.6726322      5.6720680      2.8361751

 **********************************************************************

            Population analysis using the SCF density.

 **********************************************************************

 Orbital symmetries:
       Occupied  (A) (A) (A) (A) (A) (A) (A) (A) (A) (A) (A) (A)
                 (A) (A) (A) (A) (A) (A) (A) (A) (A)
       Virtual   (A) (A) (A) (A) (A) (A) (A) (A) (A) (A) (A) (A)
                 (A) (A) (A) (A) (A) (A) (A) (A) (A) (A) (A) (A)
                 (A) (A) (A) (A) (A) (A) (A) (A) (A) (A) (A) (A)
                 (A) (A) (A) (A) (A) (A) (A) (A) (A) (A) (A) (A)
                 (A) (A) (A) (A) (A) (A) (A) (A) (A) (A) (A) (A)
                 (A) (A) (A) (A) (A) (A) (A) (A) (A) (A) (A) (A)
                 (A) (A) (A) (A) (A) (A) (A) (A) (A) (A) (A) (A)
                 (A) (A) (A) (A) (A) (A) (A) (A) (A) (A) (A) (A)
                 (A) (A) (A) (A) (A) (A) (A) (A) (A)
 The electronic state is 1-A.
 Alpha  occ. eigenvalues --  -10.19871 -10.19844 -10.19844 -10.19789 -10.19789
 Alpha  occ. eigenvalues --  -10.19762  -0.85673  -0.74985  -0.74983  -0.60696
 Alpha  occ. eigenvalues --   -0.60694  -0.52742  -0.46771  -0.44851  -0.42666
 Alpha  occ. eigenvalues --   -0.42663  -0.36927  -0.34974  -0.34973  -0.25709
 Alpha  occ. eigenvalues --   -0.25707
 Alpha virt. eigenvalues --   -0.01443  -0.01442   0.00891   0.02620   0.02621
 Alpha virt. eigenvalues --    0.04595   0.04596   0.06667   0.07805   0.07946
 Alpha virt. eigenvalues --    0.09213   0.09233   0.09977   0.12679   0.14268
 Alpha virt. eigenvalues --    0.14280   0.14481   0.14483   0.15501   0.15531
 Alpha virt. eigenvalues --    0.19591   0.19681   0.19683   0.20511   0.21158
 Alpha virt. eigenvalues --    0.21175   0.23517   0.24371   0.24372   0.26633
 Alpha virt. eigenvalues --    0.27903   0.27909   0.32470   0.34769   0.34770
 Alpha virt. eigenvalues --    0.34900   0.34903   0.56545   0.57544   0.60118
 Alpha virt. eigenvalues --    0.62037   0.65912   0.71727   0.71728   0.72082
 Alpha virt. eigenvalues --    0.72084   0.74665   0.74665   0.76859   0.76861
 Alpha virt. eigenvalues --    0.80335   0.82791   0.89558   0.93114   0.93114
 Alpha virt. eigenvalues --    0.96413   0.96416   0.97524   1.03184   1.07384
 Alpha virt. eigenvalues --    1.07391   1.13608   1.13615   1.16983   1.16984
 Alpha virt. eigenvalues --    1.25088   1.30886   1.39149   1.43440   1.43443
 Alpha virt. eigenvalues --    1.47808   1.47810   1.50506   1.50510   1.74922
 Alpha virt. eigenvalues --    1.81577   1.88332   1.90375   1.98682   1.98686
 Alpha virt. eigenvalues --    2.10347   2.10353   2.14994   2.15001   2.16145
 Alpha virt. eigenvalues --    2.16148   2.30082   2.30086   2.31973   2.57135
 Alpha virt. eigenvalues --    2.57138   2.64244   2.69986   2.69988   2.73069
 Alpha virt. eigenvalues --    2.73071   2.82550   3.01781   3.39472   4.22119
 Alpha virt. eigenvalues --    4.23788   4.23791   4.37587   4.37588   4.67634
          Condensed to atoms (all electrons):
               1          2          3          4          5          6
     1  C    4.966318   0.548848  -0.079742  -0.017901  -0.079656   0.549106
     2  C    0.548848   4.966503   0.549034  -0.079656  -0.017934  -0.079621
     3  C   -0.079742   0.549034   4.966184   0.549106  -0.079621  -0.018030
     4  C   -0.017901  -0.079656   0.549106   4.966318   0.548848  -0.079742
     5  C   -0.079656  -0.017934  -0.079621   0.548848   4.966503   0.549034
     6  C    0.549106  -0.079621  -0.018030  -0.079742   0.549034   4.966184
     7  H    0.275377   0.001832   0.009119  -0.006394   0.009151   0.001867
     8  H    0.001818   0.275438   0.001822   0.009129  -0.006400   0.009137
     9  H    0.009127   0.001865   0.275276   0.001920   0.009115  -0.006378
    10  H   -0.006394   0.009151   0.001867   0.275377   0.001832   0.009119
    11  H    0.009129  -0.006400   0.009137   0.001818   0.275438   0.001822
    12  H    0.001920   0.009115  -0.006378   0.009127   0.001865   0.275276
               7          8          9         10         11         12
     1  C    0.275377   0.001818   0.009127  -0.006394   0.009129   0.001920
     2  C    0.001832   0.275438   0.001865   0.009151  -0.006400   0.009115
     3  C    0.009119   0.001822   0.275276   0.001867   0.009137  -0.006378
     4  C   -0.006394   0.009129   0.001920   0.275377   0.001818   0.009127
     5  C    0.009151  -0.006400   0.009115   0.001832   0.275438   0.001865
     6  C    0.001867   0.009137  -0.006378   0.009119   0.001822   0.275276
     7  H    0.541788  -0.005202  -0.000157   0.000015  -0.000157  -0.005199
     8  H   -0.005202   0.541780  -0.005198  -0.000157   0.000015  -0.000157
     9  H   -0.000157  -0.005198   0.541806  -0.005199  -0.000157   0.000015
    10  H    0.000015  -0.000157  -0.005199   0.541788  -0.005202  -0.000157
    11  H   -0.000157   0.000015  -0.000157  -0.005202   0.541780  -0.005198
    12  H   -0.005199  -0.000157   0.000015  -0.000157  -0.005198   0.541806
 Mulliken charges:
               1
     1  C   -0.177950
     2  C   -0.178175
     3  C   -0.177775
     4  C   -0.177950
     5  C   -0.178175
     6  C   -0.177775
     7  H    0.177961
     8  H    0.177974
     9  H    0.177965
    10  H    0.177961
    11  H    0.177974
    12  H    0.177965
 Sum of Mulliken charges =   0.00000
 Mulliken charges with hydrogens summed into heavy atoms:
               1
     1  C    0.000011
     2  C   -0.000201
     3  C    0.000190
     4  C    0.000011
     5  C   -0.000201
     6  C    0.000190
 Electronic spatial extent (au):  <R**2>=            461.7848
 Charge=              0.0000 electrons
 Dipole moment (field-independent basis, Debye):
    X=              0.0000    Y=              0.0000    Z=              0.0002  Tot=              0.0002
 Quadrupole moment (field-independent basis, Debye-Ang):
   XX=            -32.1979   YY=            -32.1992   ZZ=            -40.4338
   XY=              0.0003   XZ=              0.0003   YZ=              0.0010
 Traceless Quadrupole moment (field-independent basis, Debye-Ang):
   XX=              2.7457   YY=              2.7445   ZZ=             -5.4902
   XY=              0.0003   XZ=              0.0003   YZ=              0.0010
 Octapole moment (field-independent basis, Debye-Ang**2):
  XXX=              0.0000  YYY=              0.0000  ZZZ=              0.0004  XYY=              0.0000
  XXY=              0.0000  XXZ=             -0.0009  XZZ=              0.0000  YZZ=              0.0000
  YYZ=              0.0028  XYZ=              0.0013
 Hexadecapole moment (field-independent basis, Debye-Ang**3):
 XXXX=           -280.8298 YYYY=           -280.8221 ZZZZ=            -52.2482 XXXY=              0.0040
 XXXZ=             -0.0004 YYYX=             -0.0012 YYYZ=              0.0074 ZZZX=              0.0005
 ZZZY=              0.0017 XXYY=            -93.6086 XXZZ=            -66.4043 YYZZ=            -66.4035
 XXYZ=              0.0013 YYXZ=              0.0029 ZZXY=              0.0008
 N-N= 2.029427124098D+02 E-N=-9.428047528328D+02  KE= 2.298918674250D+02
 1\1\GINC-DC1S6B3C\FOpt\RB3LYP\6-31+G(d)\C6H6\CMSBO\06-Dec-2020\0\\#b3l
 yp/6-31+G(d) opt freq\\gas opt\\0,1\C,0.1659882764,-1.3886016467,0.000
 9023323\C,-1.1196338123,-0.8381229869,0.0005269994\C,-1.2856285334,0.5
 505188831,-0.0001687265\C,-0.1659882326,1.3886015925,-0.0004422997\C,1
 .1196338025,0.8381230041,-0.0000107843\C,1.2856285675,-0.5505189408,0.
 0005449634\H,0.2950614139,-2.468183439,0.0019691839\H,-1.9899914405,-1
 .4897478939,0.0006265066\H,-2.2850711197,0.9785939336,-0.0005088783\H,
 -0.29506148,2.4681837442,-0.000950039\H,1.9899914266,1.4897478248,-0.0
 003501218\H,2.2850711316,-0.978594075,0.000860864\\Version=ES64L-G09Re
 vD.01\State=1-A\HF=-232.2589169\RMSD=7.894e-09\RMSF=2.493e-05\Dipole=-
 0.0000002,0.0000005,0.000079\Quadrupole=2.0409594,2.0408618,-4.0818212
 ,0.0005116,0.0007896,-0.0037754\PG=C01 [X(C6H6)]\\@


 WAR ES EIN GOTT DER DIESE ZEICHEN SCHRIEB?
          - LUDWIG BOLTZMANN, QUOTING GOETHE, ABOUT MAXWELL'S EQUATIONS.
 Job cpu time:       0 days  0 hours  1 minutes 24.7 seconds.
 File lengths (MBytes):  RWF=      9 Int=      0 D2E=      0 Chk=      2 Scr=      1
 Normal termination of Gaussian 09 at Sun Dec  6 20:36:08 2020.
 Link1:  Proceeding to internal job step number  2.
 ---------------------------------------------------------------------
 #N Geom=AllCheck Guess=TCheck SCRF=Check GenChk RB3LYP/6-31+G(d) Freq
 ---------------------------------------------------------------------
 1/10=4,29=7,30=1,38=1,40=1/1,3;
 2/12=2,40=1/2;
 3/5=1,6=6,7=11,11=2,14=-4,16=1,25=1,30=1,70=2,71=2,74=-5,116=1,140=1/1,2,3;
 4/5=101/1;
 5/5=2,98=1/2;
 8/6=4,10=90,11=11/1;
 11/6=1,8=1,9=11,15=111,16=1/1,2,10;
 10/6=1/2;
 6/7=2,8=2,9=2,10=2,18=1,28=1/1;
 7/8=1,10=1,25=1/1,2,3,16;
 1/10=4,30=1/3;
 99//99;
 Structure from the checkpoint file:  "gas.chk"
 -------
 gas opt
 -------
 Charge =  0 Multiplicity = 1
 Redundant internal coordinates found in file.
 C,0,0.1659882764,-1.3886016467,0.0009023323
 C,0,-1.1196338123,-0.8381229869,0.0005269994
 C,0,-1.2856285334,0.5505188831,-0.0001687265
 C,0,-0.1659882326,1.3886015925,-0.0004422997
 C,0,1.1196338025,0.8381230041,-0.0000107843
 C,0,1.2856285675,-0.5505189408,0.0005449634
 H,0,0.2950614139,-2.468183439,0.0019691839
 H,0,-1.9899914405,-1.4897478939,0.0006265066
 H,0,-2.2850711197,0.9785939336,-0.0005088783
 H,0,-0.29506148,2.4681837442,-0.000950039
 H,0,1.9899914266,1.4897478248,-0.0003501218
 H,0,2.2850711316,-0.978594075,0.000860864
 Recover connectivity data from disk.

 GradGradGradGradGradGradGradGradGradGradGradGradGradGradGradGradGradGrad
 Berny optimization.
 Initialization pass.
                           ----------------------------
                           !    Initial Parameters    !
                           ! (Angstroms and Degrees)  !
 --------------------------                            --------------------------
 ! Name  Definition              Value          Derivative Info.                !
 --------------------------------------------------------------------------------
 ! R1    R(1,2)                  1.3985         calculate D2E/DX2 analytically  !
 ! R2    R(1,6)                  1.3986         calculate D2E/DX2 analytically  !
 ! R3    R(1,7)                  1.0873         calculate D2E/DX2 analytically  !
 ! R4    R(2,3)                  1.3985         calculate D2E/DX2 analytically  !
 ! R5    R(2,8)                  1.0873         calculate D2E/DX2 analytically  !
 ! R6    R(3,4)                  1.3986         calculate D2E/DX2 analytically  !
 ! R7    R(3,9)                  1.0873         calculate D2E/DX2 analytically  !
 ! R8    R(4,5)                  1.3985         calculate D2E/DX2 analytically  !
 ! R9    R(4,10)                 1.0873         calculate D2E/DX2 analytically  !
 ! R10   R(5,6)                  1.3985         calculate D2E/DX2 analytically  !
 ! R11   R(5,11)                 1.0873         calculate D2E/DX2 analytically  !
 ! R12   R(6,12)                 1.0873         calculate D2E/DX2 analytically  !
 ! A1    A(2,1,6)              120.0044         calculate D2E/DX2 analytically  !
 ! A2    A(2,1,7)              119.9975         calculate D2E/DX2 analytically  !
 ! A3    A(6,1,7)              119.9981         calculate D2E/DX2 analytically  !
 ! A4    A(1,2,3)              119.9963         calculate D2E/DX2 analytically  !
 ! A5    A(1,2,8)              119.9986         calculate D2E/DX2 analytically  !
 ! A6    A(3,2,8)              120.0051         calculate D2E/DX2 analytically  !
 ! A7    A(2,3,4)              119.9993         calculate D2E/DX2 analytically  !
 ! A8    A(2,3,9)              120.0028         calculate D2E/DX2 analytically  !
 ! A9    A(4,3,9)              119.998          calculate D2E/DX2 analytically  !
 ! A10   A(3,4,5)              120.0044         calculate D2E/DX2 analytically  !
 ! A11   A(3,4,10)             119.9981         calculate D2E/DX2 analytically  !
 ! A12   A(5,4,10)             119.9975         calculate D2E/DX2 analytically  !
 ! A13   A(4,5,6)              119.9963         calculate D2E/DX2 analytically  !
 ! A14   A(4,5,11)             119.9986         calculate D2E/DX2 analytically  !
 ! A15   A(6,5,11)             120.0051         calculate D2E/DX2 analytically  !
 ! A16   A(1,6,5)              119.9993         calculate D2E/DX2 analytically  !
 ! A17   A(1,6,12)             119.998          calculate D2E/DX2 analytically  !
 ! A18   A(5,6,12)             120.0028         calculate D2E/DX2 analytically  !
 ! D1    D(6,1,2,3)             -0.0018         calculate D2E/DX2 analytically  !
 ! D2    D(6,1,2,8)            179.9891         calculate D2E/DX2 analytically  !
 ! D3    D(7,1,2,3)            179.968          calculate D2E/DX2 analytically  !
 ! D4    D(7,1,2,8)             -0.0411         calculate D2E/DX2 analytically  !
 ! D5    D(2,1,6,5)              0.0084         calculate D2E/DX2 analytically  !
 ! D6    D(2,1,6,12)           179.9985         calculate D2E/DX2 analytically  !
 ! D7    D(7,1,6,5)           -179.9614         calculate D2E/DX2 analytically  !
 ! D8    D(7,1,6,12)             0.0288         calculate D2E/DX2 analytically  !
 ! D9    D(1,2,3,4)             -0.0022         calculate D2E/DX2 analytically  !
 ! D10   D(1,2,3,9)            179.9971         calculate D2E/DX2 analytically  !
 ! D11   D(8,2,3,4)           -179.9931         calculate D2E/DX2 analytically  !
 ! D12   D(8,2,3,9)              0.0062         calculate D2E/DX2 analytically  !
 ! D13   D(2,3,4,5)             -0.0004         calculate D2E/DX2 analytically  !
 ! D14   D(2,3,4,10)          -179.998          calculate D2E/DX2 analytically  !
 ! D15   D(9,3,4,5)           -179.9997         calculate D2E/DX2 analytically  !
 ! D16   D(9,3,4,10)             0.0027         calculate D2E/DX2 analytically  !
 ! D17   D(3,4,5,6)              0.0071         calculate D2E/DX2 analytically  !
 ! D18   D(3,4,5,11)           179.9923         calculate D2E/DX2 analytically  !
 ! D19   D(10,4,5,6)          -179.9954         calculate D2E/DX2 analytically  !
 ! D20   D(10,4,5,11)           -0.0102         calculate D2E/DX2 analytically  !
 ! D21   D(4,5,6,1)             -0.011          calculate D2E/DX2 analytically  !
 ! D22   D(4,5,6,12)           179.9988         calculate D2E/DX2 analytically  !
 ! D23   D(11,5,6,1)          -179.9963         calculate D2E/DX2 analytically  !
 ! D24   D(11,5,6,12)            0.0136         calculate D2E/DX2 analytically  !
[...]
    R2        2.64290  -0.00003   0.00000  -0.00006  -0.00006   2.64284
    R3        2.05464   0.00002   0.00000   0.00004   0.00004   2.05468
    R4        2.64284   0.00004   0.00000   0.00008   0.00008   2.64291
    R5        2.05463   0.00002   0.00000   0.00007   0.00007   2.05469
    R6        2.64290  -0.00003   0.00000  -0.00006  -0.00006   2.64284
    R7        2.05462   0.00003   0.00000   0.00009   0.00009   2.05472
    R8        2.64281   0.00002   0.00000   0.00004   0.00004   2.64286
    R9        2.05464   0.00002   0.00000   0.00004   0.00004   2.05468
   R10        2.64284   0.00004   0.00000   0.00008   0.00008   2.64291
   R11        2.05463   0.00002   0.00000   0.00007   0.00007   2.05469
   R12        2.05462   0.00003   0.00000   0.00009   0.00009   2.05472
    A1        2.09447  -0.00003   0.00000  -0.00018  -0.00018   2.09429
    A2        2.09435   0.00003   0.00000   0.00018   0.00018   2.09453
    A3        2.09436   0.00001   0.00000   0.00000   0.00000   2.09436
    A4        2.09433   0.00001   0.00000   0.00005   0.00005   2.09438
    A5        2.09437   0.00001   0.00000   0.00012   0.00012   2.09449
    A6        2.09448  -0.00002   0.00000  -0.00017  -0.00017   2.09431
    A7        2.09438   0.00002   0.00000   0.00013   0.00013   2.09451
    A8        2.09444  -0.00002   0.00000  -0.00015  -0.00015   2.09429
    A9        2.09436  -0.00001   0.00000   0.00002   0.00002   2.09438
   A10        2.09447  -0.00003   0.00000  -0.00018  -0.00018   2.09429
   A11        2.09436   0.00001   0.00000   0.00000   0.00000   2.09436
   A12        2.09435   0.00003   0.00000   0.00018   0.00018   2.09453
   A13        2.09433   0.00001   0.00000   0.00005   0.00005   2.09438
   A14        2.09437   0.00001   0.00000   0.00012   0.00012   2.09449
   A15        2.09448  -0.00002   0.00000  -0.00017  -0.00017   2.09431
   A16        2.09438   0.00002   0.00000   0.00013   0.00013   2.09451
   A17        2.09436  -0.00001   0.00000   0.00002   0.00002   2.09438
   A18        2.09444  -0.00002   0.00000  -0.00015  -0.00015   2.09429
    D1       -0.00003   0.00000   0.00000   0.00003   0.00003   0.00000
    D2        3.14140   0.00000   0.00000   0.00019   0.00019   3.14159
    D3        3.14103   0.00001   0.00000   0.00056   0.00056  -3.14159
    D4       -0.00072   0.00001   0.00000   0.00072   0.00072   0.00000
    D5        0.00015   0.00000   0.00000  -0.00015  -0.00015   0.00000
    D6        3.14157   0.00000   0.00000   0.00003   0.00003  -3.14159
    D7       -3.14092  -0.00001   0.00000  -0.00067  -0.00067   3.14159
    D8        0.00050  -0.00001   0.00000  -0.00050  -0.00050   0.00000
    D9       -0.00004   0.00000   0.00000   0.00004   0.00004   0.00000
   D10        3.14154   0.00000   0.00000   0.00005   0.00005   3.14159
   D11       -3.14147   0.00000   0.00000  -0.00012  -0.00012  -3.14159
   D12        0.00011   0.00000   0.00000  -0.00011  -0.00011   0.00000
   D13       -0.00001   0.00000   0.00000   0.00001   0.00001   0.00000
   D14       -3.14156   0.00000   0.00000  -0.00004  -0.00004  -3.14159
   D15       -3.14159   0.00000   0.00000   0.00000   0.00000  -3.14159
   D16        0.00005   0.00000   0.00000  -0.00005  -0.00005   0.00000
   D17        0.00012   0.00000   0.00000  -0.00012  -0.00012   0.00000
   D18        3.14146   0.00000   0.00000   0.00013   0.00013  -3.14159
   D19       -3.14151   0.00000   0.00000  -0.00008  -0.00008   3.14159
   D20       -0.00018   0.00000   0.00000   0.00018   0.00018   0.00000
   D21       -0.00019   0.00001   0.00000   0.00019   0.00019   0.00000
   D22        3.14157   0.00000   0.00000   0.00002   0.00002  -3.14159
   D23       -3.14153   0.00000   0.00000  -0.00007  -0.00007   3.14159
   D24        0.00024  -0.00001   0.00000  -0.00024  -0.00024   0.00000
         Item               Value     Threshold  Converged?
 Maximum Force            0.000040     0.000450     YES
 RMS     Force            0.000018     0.000300     YES
 Maximum Displacement     0.000760     0.001800     YES
 RMS     Displacement     0.000176     0.001200     YES
 Predicted change in Energy=-5.106680D-08
 Optimization completed.
    -- Stationary point found.
                           ----------------------------
                           !   Optimized Parameters   !
                           ! (Angstroms and Degrees)  !
 --------------------------                            --------------------------
 ! Name  Definition              Value          Derivative Info.                !
 --------------------------------------------------------------------------------
 ! R1    R(1,2)                  1.3985         -DE/DX =    0.0                 !
 ! R2    R(1,6)                  1.3986         -DE/DX =    0.0                 !
 ! R3    R(1,7)                  1.0873         -DE/DX =    0.0                 !
 ! R4    R(2,3)                  1.3985         -DE/DX =    0.0                 !
 ! R5    R(2,8)                  1.0873         -DE/DX =    0.0                 !
 ! R6    R(3,4)                  1.3986         -DE/DX =    0.0                 !
 ! R7    R(3,9)                  1.0873         -DE/DX =    0.0                 !
 ! R8    R(4,5)                  1.3985         -DE/DX =    0.0                 !
 ! R9    R(4,10)                 1.0873         -DE/DX =    0.0                 !
 ! R10   R(5,6)                  1.3985         -DE/DX =    0.0                 !
 ! R11   R(5,11)                 1.0873         -DE/DX =    0.0                 !
 ! R12   R(6,12)                 1.0873         -DE/DX =    0.0                 !
 ! A1    A(2,1,6)              120.0044         -DE/DX =    0.0                 !
 ! A2    A(2,1,7)              119.9975         -DE/DX =    0.0                 !
 ! A3    A(6,1,7)              119.9981         -DE/DX =    0.0                 !
 ! A4    A(1,2,3)              119.9963         -DE/DX =    0.0                 !
 ! A5    A(1,2,8)              119.9986         -DE/DX =    0.0                 !
 ! A6    A(3,2,8)              120.0051         -DE/DX =    0.0                 !
 ! A7    A(2,3,4)              119.9993         -DE/DX =    0.0                 !
 ! A8    A(2,3,9)              120.0028         -DE/DX =    0.0                 !
 ! A9    A(4,3,9)              119.998          -DE/DX =    0.0                 !
 ! A10   A(3,4,5)              120.0044         -DE/DX =    0.0                 !
 ! A11   A(3,4,10)             119.9981         -DE/DX =    0.0                 !
 ! A12   A(5,4,10)             119.9975         -DE/DX =    0.0                 !
 ! A13   A(4,5,6)              119.9963         -DE/DX =    0.0                 !
 ! A14   A(4,5,11)             119.9986         -DE/DX =    0.0                 !
 ! A15   A(6,5,11)             120.0051         -DE/DX =    0.0                 !
 ! A16   A(1,6,5)              119.9993         -DE/DX =    0.0                 !
 ! A17   A(1,6,12)             119.998          -DE/DX =    0.0                 !
 ! A18   A(5,6,12)             120.0028         -DE/DX =    0.0                 !
 ! D1    D(6,1,2,3)             -0.0018         -DE/DX =    0.0                 !
 ! D2    D(6,1,2,8)            179.9891         -DE/DX =    0.0                 !
 ! D3    D(7,1,2,3)           -180.032          -DE/DX =    0.0                 !
 ! D4    D(7,1,2,8)             -0.0411         -DE/DX =    0.0                 !
 ! D5    D(2,1,6,5)              0.0084         -DE/DX =    0.0                 !
 ! D6    D(2,1,6,12)          -180.0015         -DE/DX =    0.0                 !
 ! D7    D(7,1,6,5)            180.0386         -DE/DX =    0.0                 !
 ! D8    D(7,1,6,12)             0.0288         -DE/DX =    0.0                 !
 ! D9    D(1,2,3,4)             -0.0022         -DE/DX =    0.0                 !
 ! D10   D(1,2,3,9)            179.9971         -DE/DX =    0.0                 !
 ! D11   D(8,2,3,4)           -179.9931         -DE/DX =    0.0                 !
 ! D12   D(8,2,3,9)              0.0062         -DE/DX =    0.0                 !
 ! D13   D(2,3,4,5)             -0.0004         -DE/DX =    0.0                 !
 ! D14   D(2,3,4,10)          -179.998          -DE/DX =    0.0                 !
 ! D15   D(9,3,4,5)           -179.9997         -DE/DX =    0.0                 !
 ! D16   D(9,3,4,10)             0.0027         -DE/DX =    0.0                 !
 ! D17   D(3,4,5,6)              0.0071         -DE/DX =    0.0                 !
 ! D18   D(3,4,5,11)          -180.0077         -DE/DX =    0.0                 !
 ! D19   D(10,4,5,6)           180.0046         -DE/DX =    0.0                 !
 ! D20   D(10,4,5,11)           -0.0102         -DE/DX =    0.0                 !
 ! D21   D(4,5,6,1)             -0.011          -DE/DX =    0.0                 !
 ! D22   D(4,5,6,12)          -180.0012         -DE/DX =    0.0                 !
 ! D23   D(11,5,6,1)           180.0037         -DE/DX =    0.0                 !
 ! D24   D(11,5,6,12)            0.0136         -DE/DX =    0.0                 !
 --------------------------------------------------------------------------------
 GradGradGradGradGradGradGradGradGradGradGradGradGradGradGradGradGradGrad

 1\1\GINC-DC1S6B3C\Freq\RB3LYP\6-31+G(d)\C6H6\CMSBO\06-Dec-2020\0\\#N G
 eom=AllCheck Guess=TCheck SCRF=Check GenChk RB3LYP/6-31+G(d) Freq\\gas
  opt\\0,1\C,0.1659882764,-1.3886016467,0.0009023323\C,-1.1196338123,-0
 .8381229869,0.0005269994\C,-1.2856285334,0.5505188831,-0.0001687265\C,
 -0.1659882326,1.3886015925,-0.0004422997\C,1.1196338025,0.8381230041,-
 0.0000107843\C,1.2856285675,-0.5505189408,0.0005449634\H,0.2950614139,
 -2.468183439,0.0019691839\H,-1.9899914405,-1.4897478939,0.0006265066\H
 ,-2.2850711197,0.9785939336,-0.0005088783\H,-0.29506148,2.4681837442,-
 0.000950039\H,1.9899914266,1.4897478248,-0.0003501218\H,2.2850711316,-
 0.978594075,0.000860864\\Version=ES64L-G09RevD.01\State=1-A\HF=-232.25
 89169\RMSD=2.709e-09\RMSF=2.493e-05\ZeroPoint=0.1005741\Thermal=0.1049
 72\Dipole=0.0000004,-0.0000007,0.0000793\DipoleDeriv=-0.041939,-0.0178
 768,0.0000193,-0.0177029,0.1054044,-0.0002348,0.0000414,-0.0005566,-0.
 1421101,0.0533628,0.0727253,-0.000028,0.0725812,0.0106244,-0.000024,0.
 0001041,0.0001149,-0.1422241,0.0839102,-0.0549731,0.0000479,-0.0548261
 ,-0.0207684,-0.0000823,0.0000464,-0.0000778,-0.141624,-0.0419393,-0.01
 78766,0.0000262,-0.0177029,0.1054042,-0.0001246,0.0000286,-0.0000605,-
 0.1421099,0.053363,0.0727256,-0.0000059,0.0725806,0.0106239,-0.0000655
 ,-0.0001423,-0.0001426,-0.1422239,0.0839105,-0.0549731,0.0000507,-0.05
 48267,-0.0207678,-0.0000114,0.0000685,0.0000268,-0.1416245,0.0600531,0
 .0224144,-0.0000203,0.0222592,-0.123575,0.0001706,-0.0000377,0.0003554
 ,0.1420541,-0.0584006,-0.0907013,0.0000223,-0.0906564,-0.0051198,0.000
 0634,-0.0000273,0.0000227,0.1421281,-0.0969866,0.0684114,-0.0000621,0.
 0683455,0.0334344,0.000065,-0.000083,0.0000458,0.1417761,0.0600532,0.0
 224144,-0.0000217,0.0222592,-0.1235749,0.0001262,-0.0000195,0.0001095,
 0.1420542,-0.0584005,-0.0907013,0.0000235,-0.0906563,-0.0051198,0.0000
 617,0.000114,0.0000921,0.142128,-0.0969868,0.0684114,-0.0000519,0.0683
 456,0.0334342,0.0000557,-0.0000931,0.0000703,0.1417761\Polar=78.617841
 9,-0.0028192,78.61822,0.003477,-0.0175062,41.0021449\PG=C01 [X(C6H6)]\
 NImag=0\\0.66634330,-0.00892420,0.73907472,0.00006569,-0.00046314,0.13
 336134,-0.30451567,0.10682107,-0.00008120,0.71331036,0.04329920,-0.161
 31592,0.00006807,0.03597690,0.69219010,-0.00004752,0.00006385,-0.06215
 174,0.00007377,-0.00026026,0.13338908,0.02075642,0.03446659,-0.0000239
 6,-0.13202216,0.05627786,-0.00003346,0.72861411,0.08100307,-0.01306735
 ,0.00001486,-0.00722928,-0.33355576,0.00013169,-0.02728823,0.67619433,
 -0.00004365,0.00001140,0.00716146,-0.00000093,0.00013384,-0.06208008,0
 .00009266,-0.00026035,0.13340788,-0.06637892,-0.00774784,0.00000035,0.
 04534457,-0.06683455,0.00003616,-0.26214670,-0.06772818,0.00000364,0.6
 6634349,-0.00774783,-0.00232700,-0.00000632,-0.02031657,-0.03773916,0.
 00001920,-0.13122101,-0.20332000,0.00005194,-0.00892428,0.73907511,-0.
 00000406,-0.00000330,-0.00678976,0.00001542,0.00001376,0.00722678,0.00
 003781,0.00006084,-0.06213648,0.00006460,-0.00028263,0.13336104,0.0453
 4457,-0.02031659,0.00001781,-0.02507604,0.03164228,-0.00001653,-0.0545
 1646,-0.03733933,0.00001062,-0.30451585,0.10682121,-0.00008080,0.71331
 054,-0.06683455,-0.03773920,0.00001377,0.03164229,-0.04361992,0.000020
 81,0.00916216,0.06235042,-0.00003025,0.04329929,-0.16131595,0.00005586
 ,0.03597682,0.69219006,0.00004006,0.00002233,0.00722678,-0.00001955,0.
 00002040,-0.00678273,-0.00000885,-0.00003333,0.00716807,-0.00004454,0.
 00006035,-0.06215171,0.00001058,-0.00025798,0.13338904,-0.26214662,-0.
 13122087,0.00005868,-0.05451651,0.00916214,-0.00000909,-0.01159761,-0.
 02401626,0.00001400,0.02075641,0.03446659,-0.00001175,-0.13202217,0.05
 627781,-0.00003283,0.72861402,-0.06772811,-0.20331995,0.00008659,-0.03
 733932,0.06235044,-0.00002745,-0.02401625,-0.05705299,0.00002413,0.081
 00308,-0.01306733,0.00001643,-0.00722931,-0.33355571,0.00010146,-0.027
 28829,0.67619427,0.00002409,0.00006936,-0.06213652,0.00001033,-0.00002
 275,0.00716807,0.00001105,0.00001938,-0.00682679,-0.00003601,0.0000166
 7,0.00716146,-0.00000391,0.00011339,-0.06208006,0.00005860,-0.00026590
 ,0.13340792,-0.06400707,0.03275239,-0.00003337,0.00145893,0.03046301,-
 0.00002352,-0.00532010,0.00134076,-0.00000228,-0.00127954,-0.00023551,
 0.00000001,-0.00406016,-0.00262933,0.00000065,0.00766954,-0.02653793,0
 .00002009,0.06317853,0.03275911,-0.33400672,0.00028068,-0.00095634,-0.
 00843440,0.00000876,0.00255842,0.00124872,0.00000712,-0.00023834,0.000
 67064,-0.00000096,-0.00384887,-0.00001615,0.00000745,0.00487457,-0.014
 61536,0.00001375,-0.03538283,0.35476106,-0.00003735,0.00030026,-0.0364
 4471,0.00000583,0.00000296,0.00308354,-0.00000116,0.00000362,0.0071408
 1,0.00000030,-0.00000112,-0.00063433,-0.00000047,0.00000352,0.00713833
 ,-0.00000614,0.00000192,0.00305320,0.00003730,-0.00030659,0.02540320,-
 0.01845874,-0.01995250,0.00000655,-0.23814762,-0.13327373,0.00001971,0
 .00681161,0.00404998,-0.00000153,0.00129219,0.00125513,-0.00000184,-0.
 00002137,0.00096180,-0.00000038,-0.00382112,0.00398637,-0.00000428,0.0
 0102491,0.00031884,0.00000086,0.25124832,0.01146950,0.01148053,-0.0000
 0250,-0.13328711,-0.15997552,0.00002875,-0.02735346,-0.01377736,0.0000
 0420,0.00247533,-0.00536862,0.00000569,0.00096331,-0.00058585,0.000000
 31,0.00276816,-0.00023990,0.00000319,-0.00045417,0.00089407,-0.0000021
 8,0.14394020,0.16679612,0.00000200,-0.00000607,0.00306788,0.00000853,0
 .00002994,-0.03655535,0.00001439,0.00000679,0.00306006,0.00000052,0.00
 000746,0.00713905,-0.00000167,0.00000270,-0.00063614,-0.00000431,0.000
 00171,0.00713923,0.00000089,-0.00000485,-0.00398576,-0.00002118,-0.000
 03463,0.02551529,0.00177742,0.00047443,-0.00000101,0.00032762,-0.00061
 702,-0.00000027,-0.29482364,0.10048261,-0.00008309,-0.01872729,0.01262
 790,-0.00000925,-0.00208196,-0.00442853,0.00000131,0.00039612,-0.00072
 359,0.00000030,-0.00008731,-0.00011871,0.00000018,0.00086848,0.0003593
 5,0.00000052,0.31245644,-0.00074271,-0.00585137,0.00000769,0.03078416,
 -0.00730779,0.00000822,0.10050099,-0.10316780,0.00004510,-0.01879047,0
 .01177023,-0.00000715,-0.00321025,-0.00199005,0.00000412,-0.00072980,-
 0.00099701,-0.00000002,0.00159993,-0.00052182,0.00000034,-0.00040391,0
 .00105424,-0.00000276,-0.10853932,0.10546434,-0.00000041,0.00000583,0.
 00713936,-0.00001569,0.00000603,0.00305881,-0.00008402,0.00004414,-0.0
 3645310,0.00000662,-0.00000257,0.00306117,0.00000052,0.00000367,0.0071
 4145,0.00000012,-0.00000014,-0.00063425,-0.00000003,0.00000048,0.00024
 416,0.00000119,-0.00000206,-0.00398076,0.00009095,-0.00005261,0.025421
 23,-0.00127954,-0.00023552,0.00000010,-0.00406015,-0.00262933,-0.00000
 055,0.00766954,-0.02653792,0.00001271,-0.06400707,0.03275244,-0.000018
 88,0.00145893,0.03046299,-0.00001341,-0.00532010,0.00134076,-0.0000021
 6,0.00021479,0.00003482,0.00000012,0.00022834,-0.00141695,0.00000086,0
 .00097915,0.00046583,0.00000049,0.06317851,-0.00023834,0.00067065,-0.0
 0000057,-0.00384887,-0.00001617,0.00000258,0.00487458,-0.01461531,0.00
 000864,0.03275917,-0.33400707,0.00014008,-0.00095636,-0.00843435,0.000
 00505,0.00255842,0.00124871,0.00000303,0.00003482,-0.00007192,-0.00000
 049,0.00030062,-0.00083633,0.00000068,-0.00030128,0.00092822,-0.000002
 27,-0.03538288,0.35476133,-0.00000048,-0.00000020,-0.00063433,-0.00000
 008,0.00000382,0.00713833,-0.00000197,0.00000496,0.00305319,-0.0000182
 3,0.00013795,-0.03644447,0.00000119,0.00000891,0.00308353,-0.00000175,
 0.00000442,0.00714081,0.00000016,-0.00000116,-0.00125038,-0.00000024,0
 .00000024,0.00024325,0.00000071,-0.00000216,-0.00399129,0.00002071,-0.
 00015474,0.02540297,0.00129219,0.00125513,-0.00000067,-0.00002137,0.00
 096180,-0.00000031,-0.00382113,0.00398637,-0.00000258,-0.01845872,-0.0
 1995249,0.00000954,-0.23814765,-0.13327374,0.00006701,0.00681161,0.004
 04999,-0.00000148,0.00022834,0.00030062,-0.00000022,0.00002979,-0.0001
 4166,0.00000002,-0.00105478,-0.00104113,0.00000022,0.00102491,0.000318
 84,-0.00000011,0.25124832,0.00247533,-0.00536862,0.00000725,0.00096332
 ,-0.00058585,0.,0.00276816,-0.00023990,0.00000386,0.01146950,0.0114805
 3,-0.00000394,-0.13328709,-0.15997550,0.00006042,-0.02735347,-0.013777
 36,0.00000723,-0.00141695,-0.00083633,0.00000014,-0.00014166,0.0001131
 7,-0.00000057,0.00067751,0.00044545,0.00000013,-0.00045417,0.00089407,
 -0.00000234,0.14394019,0.16679610,-0.00000046,0.00000464,0.00713906,0.
 00000031,-0.00000006,-0.00063614,-0.00000295,0.00000470,0.00713923,-0.
 00001005,-0.00000628,0.00306788,0.00007392,0.00006574,-0.03655537,0.00
 001042,0.00000576,0.00306006,-0.00000029,0.00000037,0.00024325,0.00000
 028,-0.00000057,-0.00125064,-0.00000051,-0.00000019,0.00024389,0.00000
 073,-0.00000232,-0.00398577,-0.00007168,-0.00006944,0.02551531,-0.0187
 2734,0.01262792,-0.00000897,-0.00208195,-0.00442854,0.00000161,0.00039
 611,-0.00072359,0.00000043,0.00177743,0.00047442,-0.00000080,0.0003276
 1,-0.00061701,-0.00000004,-0.29482357,0.10048259,-0.00007663,0.0009791
 5,-0.00030128,0.00000075,-0.00105478,0.00067751,-0.00000056,-0.0000302
 6,0.00010667,0.00000005,-0.00008731,-0.00011871,0.00000008,0.00086848,
 0.00035935,0.00000027,0.31245643,-0.01879048,0.01177023,-0.00000637,-0
 .00321025,-0.00199005,0.00000384,-0.00072979,-0.00099701,0.00000037,-0
 .00074272,-0.00585137,0.00000532,0.03078418,-0.00730780,0.00000942,0.1
 0050099,-0.10316781,0.00004268,0.00046583,0.00092822,-0.00000238,-0.00
 104113,0.00044545,-0.00000040,0.00010667,0.00017336,-0.00000063,0.0015
 9993,-0.00052182,0.00000032,-0.00040391,0.00105424,-0.00000235,-0.1085
 3932,0.10546436,0.00000209,-0.00000495,0.00306119,0.00000327,0.0000042
 4,0.00714146,0.00000047,0.00000270,-0.00063425,-0.00000335,0.00000535,
 0.00713936,-0.00001126,-0.00000013,0.00305882,-0.00007595,0.00005108,-
 0.03645312,0.00000037,-0.00000506,-0.00399129,0.00000086,-0.00000044,0
 .00024389,0.00000016,-0.00000056,-0.00125068,-0.00000072,0.00000032,0.
 00024416,0.00000025,-0.00000275,-0.00398076,0.00008379,-0.00004981,0.0
 2542123\\-0.00003552,0.00001936,-0.00003260,-0.00002124,0.00000421,0.0
 0001281,-0.00006538,-0.00002858,0.00000660,0.00003554,-0.00001945,-0.0
 0000932,0.00002114,-0.00000411,0.00003095,0.00006545,0.00002863,-0.000
 01767,-0.00001509,0.00001542,0.00002738,0.00002587,0.00000450,-0.00001
 080,0.00003196,-0.00000658,0.00000019,0.00001509,-0.00001544,-0.000000
 33,-0.00002587,-0.00000452,-0.00000638,-0.00003195,0.00000655,-0.00000
 083\\\@


 "WHERE SHALL I START, PLEASE YOUR MAJESTY?" HE ASKED.
 "BEGIN AT THE BEGINNING," THE KING SAID GRAVELY,
 "AND GO ON TILL YOU COME TO THE END: THEN STOP." 

                                      -- LEWIS CARROLL
 Job cpu time:       0 days  0 hours  3 minutes 14.9 seconds.
 File lengths (MBytes):  RWF=     24 Int=      0 D2E=      0 Chk=      2 Scr=      1
 Normal termination of Gaussian 09 at Sun Dec  6 20:36:58 2020.
